LAMMPS data file via write_data, version 23 Jun 2022, timestep = 2200000

256 atoms
2 atom types

0.6404092348175605 11.045590765182803 xlo xhi
0.5581084827353243 9.626091517265419 ylo yhi
0.5267072768865942 9.084492723114964 zlo zhi
0 0 0 xy xz yz

Masses

1 1
2 14

Atoms # atomic

162 1 2.359644745683851 1.5193394067906627 0.9272747752565513 0 0 4
13 2 1.5865934832563502 2.071622746180613 2.2528704730347906 0 0 0
14 2 1.4892171940478824 3.509590262871128 4.501852938976716 0 0 0
15 2 2.6845442914627164 1.2615482776373286 4.419443161133684 0 0 0
16 2 2.654324398532814 4.407279642777258 2.5218556165448565 0 0 0
101 1 1.5984931213498283 4.12771087555837 7.7368313104177595 2 0 0
29 2 1.715720053133243 2.100817177254494 6.693864317796319 0 0 0
30 2 1.5443503062132926 3.7605006387619975 8.710268709012817 0 0 0
31 2 2.876922669749242 1.4084919875087296 8.72388187268514 0 0 0
32 2 2.917751899155456 4.2782581384812195 6.596153596245915 0 0 0
12 1 1.1580804057002076 1.1022271856183132 2.2573847532456623 0 5 -1
23 1 3.700521366233913 4.346311648702108 2.502151532528434 -2 0 -1
76 1 2.6348890709650945 4.514374516173977 5.666986874862999 -2 2 0
66 1 1.788269153011875 2.913902286113175 5.336334920000343 2 2 -2
242 1 1.3943398117855788 2.6215794010351163 1.4051561723992771 1 0 3
252 1 4.202275220450856 2.6119359616618336 1.4228567010457451 2 2 -1
113 1 4.6392165860310115 1.3631337937821943 5.810521892089261 1 1 -4
147 1 0.8761083548868032 4.033776787485354 1.5457949923392604 0 -1 2
11 1 2.4312341789024776 1.8077262246758616 7.899052092265318 -1 -1 0
102 1 4.673564448081679 2.955837823874483 6.555146105099116 -1 -1 0
199 1 3.89852635811767 4.44440954425826 8.126279635716042 2 1 -1
77 2 4.2113348738149945 2.0702237983950584 2.341002740532249 0 0 0
78 2 4.086094033761368 3.6122362917879123 4.4765503067195835 0 0 0
79 2 5.279349173477566 1.4345840091353048 4.467279995438384 0 0 0
4 1 3.3804752194542944 1.4486665890494144 2.3686955073634324 -3 0 0
211 1 3.846232383531292 2.702663540120841 2.980390999159026 -1 -2 1
249 1 1.3085296236171455 4.5703612743912165 4.6649782151647186 0 0 3
108 1 2.7020007920415736 4.681367965840292 7.548258507908701 1 -1 -2
93 2 4.216905643692624 1.9599032266358822 6.650869557003227 0 0 0
94 2 4.06281725693878 3.5719364158961504 8.764651482637436 0 0 0
95 2 5.559242641541212 1.4622364458217416 8.696656258255723 0 0 0
96 2 5.56449940451213 4.390079067679187 6.553487795567674 0 0 0
72 1 4.02704851244069 4.266606684868596 6.60742746307794 -3 -1 -3
247 1 3.100542205594309 3.602352083685461 4.489956208528214 2 2 0
151 1 2.2195009389360214 3.931248714508557 3.303455698199375 1 3 1
245 1 3.1463195264225368 2.066701445054426 6.521300081259904 -2 0 2
106 1 4.68824945191195 1.5287604545234879 7.5513208919105095 0 2 0
243 1 3.0648361350388655 2.069407433873107 4.801241599407285 2 0 2
24 1 4.468434634024069 3.9258416570613215 3.499437017091575 -2 2 2
180 1 5.054986262312395 1.7183140882094232 2.5883714156087936 0 -2 -1
118 1 2.5883836942404095 3.7096841639797344 8.846188030670314 -4 -3 -2
80 2 5.322106518970159 4.337010598844177 2.35536771703452 0 0 0
169 1 2.2606478747373084 3.9051584352554527 1.5665456163301361 3 2 0
212 1 1.4294787736468546 2.874037980592223 8.300364963522696 0 -1 -1
86 1 0.9118808803915499 3.377390858898464 6.342690764997242 1 0 1
6 1 4.553604303653021 3.911896464892413 5.314108635840883 1 -1 -1
2 1 4.700412802086499 0.5985259122276986 4.506127550793289 0 0 -1
204 1 4.721700497282399 2.220968005760951 4.4170386500366305 0 0 1
230 1 1.040084510786231 1.676483084923897 7.809919827281678 0 -3 -2
100 1 4.731457940052227 4.04724575059226 0.9972114695992856 -1 1 3
52 1 2.653529887745586 3.351247673220476 6.573376996537669 5 0 0
69 1 1.7692913576875904 1.492358269300507 4.224807342942916 -2 1 -2
116 1 1.4677718628294862 2.4734397120189886 3.208337173898838 0 0 0
5 1 5.776713178691642 3.426645851267411 2.282783792106581 -1 2 3
119 1 4.622490066422747 2.9436827773936263 8.263661084151195 0 0 -4
156 1 1.7593305654210643 1.4338354753102114 5.999560082140906 3 -2 -2
194 1 3.6280871607604737 1.9079370240414755 8.674817644949895 0 2 -2
117 1 4.856826164176212 1.289935417759618 0.7662390739241495 3 2 -2
228 1 5.4392072526277655 5.27847090654985 3.4843060192088946 -4 1 -3
195 1 3.338602130704528 8.038125359696073 4.5059248970000265 2 1 -3
225 1 3.229017575240321 8.492846860355483 3.236190523716456 1 -1 2
33 1 1.9847927804285563 7.101311660155431 1.5009031210484716 2 -2 -1
179 1 3.8771114464564644 5.300340821699176 4.121844354687599 -2 0 -4
8 1 1.9548402312860995 6.565946715732229 5.535358582247651 -1 0 -1
129 1 5.6957013567910995 9.4950358753708 7.30595258070683 0 1 -3
146 1 4.364441618199113 9.069887402766414 6.323499527240271 -2 4 1
75 1 4.833778989498917 7.43172030843306 2.0116898933328917 0 -1 -3
127 2 5.372292177767381 6.102154180039287 8.63613880898945 0 0 0
120 1 4.043109344257971 6.212616682387875 8.439394496051243 -1 1 -1
45 2 1.580846672195006 6.660094415140039 2.302151442511584 0 0 0
46 2 1.6519120068818838 7.981558568264895 4.400303103490192 0 0 0
47 2 3.1785298486489877 5.894743954999452 4.398148561310855 0 0 0
48 2 2.9580974447625965 9.050323057885128 2.2508223243216365 0 0 0
140 1 3.5154895534296275 6.798778969598675 4.171450578540982 -1 -2 -3
67 1 4.69101851808416 5.67723837160368 1.9452830949167421 -1 2 -1
61 2 1.5466188541940373 6.435234513945776 6.398301956130302 0 0 0
62 2 1.6764852635976208 8.086116253199293 8.634321684170258 0 0 0
63 2 2.988921821734294 5.832480551411126 8.632582295460306 0 0 0
64 2 2.9562030174721383 8.922337029777886 6.319679019761692 0 0 0
251 1 3.4394464093158126 7.887984843900358 7.833481373723063 0 -1 2
17 1 4.627886719240728 6.439023522743131 7.307029988699564 -1 3 -3
121 1 0.9377888938858562 5.300301034070243 6.343937649907211 1 3 1
103 1 2.3873041924953737 6.6092822114441345 8.672332277290703 0 3 -1
109 2 4.121943789131599 6.696590069398992 1.8679027664779648 0 0 0
110 2 4.287227171304496 8.277596047074496 4.281097525457553 0 0 0
111 2 5.5112024142280855 6.001940931069421 4.168866810021276 0 0 0
112 2 5.389864869792136 8.879475128786405 2.0175704853351264 0 0 0
236 1 2.2825042742591473 5.9863931706560605 4.055289757312383 4 1 -1
172 1 2.239368169867889 6.403500150753624 7.185824032453658 1 -2 1
233 1 1.8885159949999848 7.279774457421125 2.953168152067243 0 -4 -1
133 1 2.1049332076321163 5.560721075275943 2.436261927603546 0 2 -1
21 1 3.7358193079474438 7.587878945637713 0.7008975570579208 -4 -3 -1
125 2 4.267702856195852 6.638504989616672 6.349454687497693 0 0 0
126 2 4.096135380230198 8.196238630986441 8.474099890154266 0 0 0
34 1 1.08668764867355 5.387302496701624 8.936406584664185 -2 1 -2
128 2 5.428636297892263 8.927862843486091 6.5687513057513245 0 0 0
115 1 1.9833440616918874 9.039247821447335 8.417352961651227 -2 1 0
20 1 5.157858977180766 6.613902326445856 5.742276127800507 -1 -4 -1
215 1 1.6276615922390327 9.001038871020187 4.2007299964601845 2 3 0
59 1 2.63560780137255 8.400964138135151 1.5579663863313595 1 -2 0
210 1 3.1408442730845727 5.638494310578866 0.939013956663709 -1 1 -1
135 1 3.5775433285300813 6.458591037551422 2.676923461862987 0 1 -1
107 1 3.5619184099725456 5.969100927021185 5.9018300422604435 0 0 0
153 1 3.749580406071603 9.09373966140586 8.650562192930762 0 -4 -5
145 1 5.059488727341664 8.232373140165784 8.32829244993961 -1 -4 -1
3 1 5.698593412708474 8.912691136363131 1.035098059554754 0 1 3
244 1 1.5011523825599562 7.7604171847675705 7.720984121148783 1 -3 1
246 1 5.80081118444134 5.4138433404827015 4.944018972716865 0 1 -3
250 1 4.886815677758648 7.854406504055962 4.941491790166576 2 2 1
182 1 4.1714548833017115 7.6261264144917345 6.321859030369849 0 0 5
84 1 4.2682661254901575 9.111902292112905 2.1040713667647806 4 1 -1
56 1 5.725780781166531 7.9560786065690365 6.764158120328393 0 -2 1
232 1 1.6477491282356225 8.27425562506745 5.3763207043388395 2 1 2
44 1 2.4706816834636003 8.015125970824332 6.466895151522183 -2 1 -1
170 1 0.9310875152840805 9.22285052366848 6.97578898076913 0 0 3
28 1 4.519776253584584 7.747854771414542 3.402675446258336 -2 -3 2
167 1 2.1632663575083457 9.424730885172824 2.8432003786873428 0 1 1
38 1 1.0001683124408767 7.2666421214709445 6.495715921754244 1 0 0
51 1 5.506546144216834 5.327251764698323 6.968839534702254 2 2 -2
57 1 2.3501638994628635 9.491830186032653 6.9571309679999285 -2 3 1
54 1 5.239624699062322 5.127043875949936 8.892568741365794 2 1 0
138 1 2.8521609933671113 9.475480015490616 5.283352992331618 1 -1 1
81 1 0.673078818692227 7.851937227990619 4.446182480319594 -1 1 -1
92 1 0.644480574282073 9.48316728098054 8.926791871062724 -1 -3 -2
10 1 5.836975868272297 9.333337472791488 2.7460463732731304 0 1 3
234 1 8.681833938709426 4.032168721503458 8.479322069592321 4 -1 0
132 1 8.274790971134799 2.1377969424217858 5.252061623631062 1 1 0
198 1 6.580652649620346 2.906741150089587 6.110640989645193 0 0 -2
104 1 9.51664125105766 2.893403001901405 7.524327907884271 0 0 -1
201 1 7.294482566306833 1.9495207081102617 1.5116727653553583 -1 -3 -3
218 1 8.200516687311673 0.7795145124640223 7.815416088230319 -1 1 -3
98 1 6.598936374978452 4.260435814496665 0.7227834065110437 2 1 0
200 1 6.043572999546713 4.155755055400057 3.956207177328497 2 0 -3
186 1 9.757736771234526 4.31251438453402 1.7837496344574282 -2 0 0
97 1 8.08631612690853 2.2962924653497048 8.258015300189433 2 -1 -3
131 1 6.259294539256436 3.9057282244179907 7.650459931984624 -3 0 -1
213 1 6.294001478945713 4.183560553076752 5.933389901718233 2 -1 0
148 1 9.931292360603532 1.2673992702494639 8.002327354048516 -1 1 -1
105 1 6.2551493691813 2.016264522254888 7.517556544845943 2 -1 0
193 1 7.566884381687732 3.5374646841022335 1.6976212859167157 3 -2 1
26 1 6.2193804388125695 1.5001370284043363 2.151179244835833 -2 0 -2
241 1 10.873195781533703 1.6221677035146738 4.965675252874848 1 4 -1
171 1 9.247607080141133 3.0583380128565976 2.0111300355100714 1 -2 4
74 1 6.0470298999901075 2.7348710984428903 4.088870861465007 -2 -4 -3
88 1 9.43986697591129 2.8701422992496193 0.5651737783881481 2 1 -3
39 1 6.527864671772605 1.2324745943323947 8.980031628852482 0 0 -2
60 1 10.322973911050955 2.185848110747959 2.1785893632135407 1 4 -2
1 1 7.575801165512475 3.863952248875312 5.781015809004613 -4 1 1
216 1 9.211617899588552 1.2959319861573246 6.655484490821323 -2 0 -1
89 1 9.662339234889808 1.0923523114924745 3.9226306122338213 0 3 1
141 2 6.842465635306288 2.1869940248180906 2.33441948912556 0 0 0
142 2 6.758928088844911 3.5280284704589553 4.464951856529193 0 0 0
143 2 7.977542385292871 1.4154160657297328 4.441585942310906 0 0 0
144 2 7.988160705800697 4.347546302185158 2.1376072347080144 0 0 0
229 1 9.23087507488489 2.8791691516411753 3.7562448282068512 -2 3 0
178 1 7.494428672838755 3.4442753807475195 3.7954499467525635 -2 0 3
184 1 8.928312048115924 3.7942864682062085 6.645079267581937 -1 0 -3
157 2 6.716067243323424 1.9228813365262165 6.590769657568146 0 0 0
158 2 6.691389583364163 3.596178128115985 8.573870769787494 0 0 0
159 2 8.127714776095848 1.3071368281715778 8.633257300762383 0 0 0
160 2 8.102840014177543 4.28472350933298 6.566798548798908 0 0 0
223 2 10.805514773409381 1.2481662031281382 8.609097668428825 0 0 0
149 1 9.018777461300143 4.598867205824451 4.383016077049308 -1 1 1
155 1 9.366418131728594 3.110604816884464 5.158022305572405 -2 0 1
196 1 10.377218261584012 3.8375414721207206 2.992695810663211 1 1 1
71 1 10.260378240778188 4.402544679649992 7.503814850620787 1 2 -1
19 1 8.704990591098257 1.078888546581541 0.8394908523895445 0 2 2
188 1 10.47209727258874 2.0020305226867916 6.642990244939109 0 -2 2
82 1 6.083011424447152 2.73250985826035 8.831375997160109 0 0 3
58 1 8.405611959669775 4.1948784398096395 3.0596283894657637 -2 0 -1
205 2 9.333239860178136 2.096990265253993 2.1561975853104762 0 0 0
206 2 9.467856611201004 3.5734057847534233 4.312775052012504 0 0 0
207 2 10.638807869778379 0.9332865099701646 4.3603192652894505 0 0 0
208 2 10.617825107954932 4.438952806359821 2.2270760714531717 0 0 0
123 1 7.7055352140828255 2.085570807437577 6.956078337524914 2 0 2
221 2 9.506877819830734 2.177465626486532 6.424931492043541 0 0 0
222 2 9.491121948034401 3.5534550442144175 8.382563493887922 0 0 0
231 1 10.13442067793326 4.8427188123497436 8.75037913663553 -4 5 -1
224 2 10.77678471820126 4.261904101390701 6.488219277229537 0 0 0
42 1 8.8383064552213 1.8503689419251903 3.01738118686241 -1 -1 1
68 1 7.519928423166059 4.03340472601516 7.367394817660701 2 0 -1
43 1 10.144621642628612 4.05175729986915 5.7038002498918114 -2 -2 0
114 1 7.052766687686891 1.735737148804391 4.647528054669616 1 1 1
87 1 7.406989978266347 1.9677296699556863 3.2459390645177075 2 -2 0
139 1 10.707859935309154 1.9362088280617615 0.8182824187490584 2 2 -4
124 1 6.168147087146766 4.994258660533656 2.151313975302061 0 -4 0
165 1 10.995189561621817 3.069431066444651 4.436430842313586 0 -1 3
130 1 7.666388890540025 4.9576215706820514 8.873878321237507 0 -3 -2
122 1 5.889293477363649 1.6200981830796533 5.239899188774437 0 1 4
185 1 8.5906750935972 5.708294969456278 3.377295146329998 1 1 -2
150 1 10.817157731224734 6.398454288699816 3.5542285934350364 -2 2 -2
226 1 8.91600280153425 8.55018127065494 1.0672737305648252 -3 -1 2
239 2 10.87417618771093 5.785566636188739 4.355979314515927 0 0 0
36 1 5.896812089678228 6.619579936094677 0.8187279923559073 2 2 0
203 1 7.727016739498318 8.07332065239326 4.575789001363979 4 -3 -3
41 1 9.03902380279053 5.674553792745126 1.7604339243197356 0 0 -2
254 2 9.492308776137468 8.135650807353267 8.739035323275036 0 0 0
91 1 9.26202331590443 7.174516204919463 8.537118433327821 3 -2 3
7 1 6.904413586263212 6.953697627125553 5.555689514579926 -1 -3 1
168 1 8.797001003449148 8.454273287246501 2.7344455169723276 -1 -4 -3
240 2 10.870815956890397 8.771626701706076 2.4001710695617096 0 0 0
18 1 8.984492884298307 8.663568745098578 8.03495395548956 -2 -3 -1
55 1 8.594129197893178 7.058250371544929 6.8101792886740204 -4 1 -1
238 2 9.36881706513535 7.919717910376236 4.259758835086569 0 0 0
253 2 9.45676753612812 6.440007601814375 6.567468154530444 0 0 0
37 1 7.751090479554609 8.05126204725853 8.701158656535242 2 0 0
248 1 10.077059291158639 8.18545969610395 6.95129338628582 2 -3 0
152 1 8.892049263219787 5.568642043976881 6.442639327244987 0 -1 -1
227 1 8.478493698626076 6.358763734585785 4.972439862948877 0 0 0
177 1 9.97202313529749 5.423575914338063 4.293521987110163 -1 -1 0
217 1 9.016900790841067 9.027782001291671 5.960078540624378 -2 -3 0
219 1 7.869521839384571 7.892034661890467 6.460690828423972 0 -1 0
181 1 10.388475828758695 6.706083794708931 2.1593513641281774 0 2 2
50 1 6.2995892334855785 7.53389710537553 3.921737468394429 -4 -2 -1
183 1 7.474409720470499 5.14526216757924 2.4421783954427436 1 0 1
40 1 6.349281755871614 6.227941696167916 3.5903632628043067 0 3 1
164 1 7.591706248573338 8.402288545817042 1.6672897539141096 -2 1 0
90 1 7.788234214844753 6.149881689913606 7.756884322717911 -2 -1 0
83 1 9.678303830762465 8.894269395186326 4.500973585765363 -3 -1 0
53 1 6.825476406275271 9.112124889324951 8.355629996987679 -1 -2 -1
187 1 10.402142082492569 6.558733892144352 0.6689515192427273 -3 1 3
70 1 10.88065928426177 8.231813328954052 8.816423076018838 -3 -3 0
166 1 10.666410057671284 6.361441999910166 5.209783554510214 1 1 -2
237 2 9.345265857132686 6.620589364560048 2.171171922132025 0 0 0
25 1 7.467012545894825 9.165676800439392 3.0186215026739536 -3 -4 0
256 2 10.649789540702864 8.72327445019352 6.531768575174262 0 0 0
137 1 6.944683589368747 7.605046226676753 7.687538800830169 -1 0 -2
214 1 8.795167403048561 7.29063511833201 1.7724585209106438 2 1 -1
173 2 6.796646666043705 6.784091513540461 2.1519224622908104 0 0 0
174 2 6.825208632535265 8.357954921337017 4.153642774382098 0 0 0
175 2 8.127288788073592 5.733503268591723 4.333499217568051 0 0 0
176 2 8.181673220565829 9.086251142351085 2.216190584321153 0 0 0
85 1 7.371703372761372 6.396042294175296 1.3306364505301922 -5 0 0
189 2 6.848612071193337 6.548967438405037 6.462159663835089 0 0 0
190 2 6.777478315956548 8.103161920386615 8.525930149522376 0 0 0
191 2 8.074915180437033 5.930270140058555 8.679788009226325 0 0 0
192 2 8.188500699058086 8.915081555931932 6.426608447037577 0 0 0
255 2 10.587943791742973 5.765940547911274 8.581789893812166 0 0 0
154 1 5.989613665031474 9.15484110603004 5.6864420312796025 1 -1 -5
209 1 10.833386069273908 5.324309191285075 2.5652612855839685 -1 4 2
220 1 10.286262332385961 9.494703783391293 2.1269510873160704 2 0 0
136 1 9.39037560955568 7.218682526892861 3.600720353387285 -1 0 0
197 1 9.611356104622093 7.278853064197992 5.005256268709973 1 -1 3
73 1 7.457389305459726 6.993984831873696 2.9260736506309426 1 3 -6
27 1 7.347870777000059 5.664798090836968 6.316927151712672 -2 0 3
161 1 6.430977086640244 9.320447216648416 4.314065618557856 0 -3 -3
99 1 10.257123563574488 6.066829090264332 7.252365348835285 -1 1 -4
49 1 7.9326726313869 9.414099818348499 4.404958365225425 -3 0 0
35 1 10.399584749861619 8.306050492364278 3.230363821961509 -1 -3 -2
202 1 6.007305338203864 6.140368481085309 7.896370840538957 2 1 2
134 1 10.67563494957149 9.281146884729694 5.582754391700776 -2 -5 -4
22 1 9.043741107885875 5.775110174104767 8.306328973419152 -3 1 -1
235 1 7.439803965672553 9.581936982452413 6.068125766949851 1 -1 -2
65 1 6.276187530032972 7.738024625389993 2.07533477642903 0 0 2
9 1 10.895103600638611 8.066434577574217 1.7087312479597008 -3 2 -4
163 1 7.4001348208174385 5.123499817092167 4.705753651419815 4 -1 1

Velocities

162 -34.87711412975812 14.662450510919554 -58.968715952092985
13 -2.4753040500895795 -11.456284877588086 -12.149783804059632
14 -8.693807600203908 -11.75904293285302 -5.026632984425397
15 -11.30339876538515 -12.125820374904722 -7.932356015864043
16 -2.5004538101147027 -0.6100000188567486 -6.2379724663871015
101 14.91844096316382 2.1343828900254525 -40.01853784045881
29 0.3561404278748785 -9.036851170588623 -0.5808045719670771
30 8.759728310144126 11.023834440036739 -2.2815769140678333
31 4.615803738455491 -6.788042708433764 5.960385008340617
32 -4.199140182349817 -4.480299951228781 2.1681593793415876
12 28.942456915642758 7.646303484160454 23.251133335922532
23 -3.1750075834042333 8.364351026675669 36.53707761641346
76 15.660185998992795 -13.26156841647063 57.38712391933867
66 -9.035683260544443 -27.977571316179812 0.7995358913228032
242 -15.30880001805879 -31.60703298274633 13.73070833023152
252 3.8303498484707172 -0.8537802295625403 22.25113480391682
113 16.415911930843833 59.74443910280161 -27.224604469340058
147 -25.692195110708052 -10.400433416348237 43.946145664183945
11 -24.126504841661845 32.07708003347925 -57.0802859652698
102 31.95795869914804 -18.970750921710348 -3.6274222097723348
199 -5.776365508971029 -16.99682290223565 -14.661341419361293
77 3.182106988557565 -1.0637562579595259 2.6378668776070078
78 1.3500582948178206 6.870981107198134 4.288184558115343
79 1.8440933999488571 -8.830653211068395 10.064178841560153
4 -26.468810124507808 6.877798855028544 -2.5420699365988337
211 -15.549084095387713 -36.908106154393515 5.2848303128414615
249 -20.82510826155553 -2.802397004387961 -31.913580239653324
108 -16.987241232330636 0.9235084670432214 -13.048393970995992
93 -4.508949939667662 2.546555940741046 6.49481951952284
94 -6.755281992996304 -6.633082667850498 -7.177598024914052
95 -9.85945060527321 8.312713959766409 -1.3464916705851233
96 -19.428191886983857 10.761975027502565 -7.162940434142382
72 -36.02586284550149 7.0333261011105686 -49.80038158489715
247 -15.661864366841476 28.269289245028546 -39.94320587189389
151 10.851993215654021 43.327882114918445 -7.758010355154109
245 -3.5359943599083845 20.981268385429818 37.137569392073864
106 4.326310935802439 8.926715859976198 21.904493290228825
243 -28.538843218468962 2.1669201210456412 -11.700071972256426
24 39.95756491737876 21.334877152539047 -30.85543220543445
180 2.1298008708288467 -47.113736210155764 47.67169039179957
118 43.45105432570105 1.3413529368229815 -20.456685839653797
80 1.8842573413995092 9.873072298447825 10.504693385819794
169 -24.097520711871464 -3.5242837920471373 37.139767943182406
212 -15.50332567016325 -38.26133566877194 1.1206649374434687
86 9.250265159884155 -56.93996925486437 -7.875813260566541
6 -29.500389007152634 14.834502700642217 8.878693988087456
2 42.66264658884047 -17.37660846553244 13.142856870672588
204 -7.584276217225644 -36.15185453861884 24.945603566839676
230 -4.066949567071328 -16.24971934984814 -57.32771750281965
100 -5.377007109882889 -2.0444252260574673 8.298999924300738
52 16.981639550073353 -4.622910327837295 0.5267682878537268
69 39.60231069089992 -48.79463049284441 5.99895632058662
116 35.38540940178027 -5.06490426615964 13.011105417796548
5 29.92107958979767 3.7935577127399713 1.9055242344796333
119 -15.05857315471442 -9.232377847705031 -35.30593042058526
156 0.7678290421593656 -45.192363548333695 -30.930000070079373
194 0.529212307812632 24.887025017460772 -0.4447229825291942
117 -8.241140443145206 6.560963419048755 -25.509773172624442
228 16.863367458311057 17.776880703975998 -36.924366459778284
195 11.763608621866075 -22.932348017880788 31.999710154998393
225 -13.913999765121645 -19.19680468683065 0.10515411917639694
33 -3.6006584134196773 15.46114609092407 -15.88954045971183
179 -22.212372157406726 -30.29630135806301 29.737051262884492
8 -17.785105577011226 23.72459329890735 -12.339344233550113
129 -23.970094121214867 -10.054879089827782 -66.24066551427563
146 37.62452853115282 34.475028466298454 9.953821802972298
75 -37.283042946976096 16.792347240754598 8.150688061828237
127 -11.791593300603608 5.774252330727069 -4.0851619398401695
120 42.769998204361144 -4.1214499636360316 -7.81301841797034
45 10.132701548848045 0.10422022498612649 -11.024852078206518
46 10.95139772399707 4.057407496825668 12.970530410478206
47 -3.9668784259343037 -4.997076802801656 -3.8299387355674956
48 7.650285785011565 -0.13916304310177513 -1.0819425450028028
140 0.9001713531413391 15.665733017004072 1.2899174718147828
67 -8.230359989137467 -13.36085697044228 -23.146969878147736
61 1.8049337806913885 3.8778781827147477 1.0870828408086148
62 -14.280125254893544 6.340812494837052 18.168135498773204
63 8.899924174551025 11.883741397808159 -15.648528059888692
64 7.82729766048425 -3.4265139688764545 -2.6424045903102145
251 -10.695841251994509 6.471948132730505 70.09750900429935
17 14.015486910341856 -12.699358024958636 -3.1886104738061483
121 -21.01356141089586 26.80990971315509 -6.419444476009822
103 -13.677490268598234 21.265732027209655 18.53492462844686
109 4.285254117910201 -8.961686706833914 5.974672843396053
110 -4.328118190372277 5.6965028063309004 3.8738916796352325
111 1.9972376018448257 -2.564240005964933 -3.837220743227071
112 4.701331806219954 -2.7718612692387232 -13.753101461558481
236 9.368244031159891 18.28646112437345 -29.895742943198254
172 40.75323934335549 -15.752596330913434 -9.263235931051506
233 38.657508857837904 20.846661624806117 59.818477686009885
133 -36.634294927681424 29.99512798157569 -23.76008894145955
21 -18.239332084422976 -3.218489002679482 0.046117817358595437
125 0.9989692113666833 -0.3645835808809338 -0.9026021788639318
126 -1.6090752489327418 1.6070832421828578 -5.986767281644366
34 11.320839823946919 0.45813580882633476 -2.6604865077138546
128 -6.174308024968274 5.462796225847401 -1.2689512133242515
115 -11.229826967847233 -0.16018293418494034 10.379812013973716
20 16.438155753380734 1.9242332500230601 29.299589066648853
215 23.47681809435726 -34.824977347898496 36.7944031315969
59 -18.562148782611622 29.847134952309858 34.34123663073776
210 -25.52812892078513 43.586643403710895 1.63769323909531
135 18.672266305903474 -3.6633864273926076 17.854568801698964
107 -33.43327410649765 -41.28389555425688 2.2106702416177657
153 -44.16512443624738 18.479408003971415 33.11778989873391
145 -18.511390215467653 -3.4567675382219614 55.13969279905838
3 -13.706331246555017 -15.177052499108171 -4.257499345675436
244 43.156656185223355 14.28209332099166 16.045033148156712
246 16.282681829927917 26.15548092480936 5.3770474475258085
250 -7.3775151467915325 5.662887758295721 -39.28468331010506
182 -3.4495850447639897 -33.35819859381875 -13.52288869513987
84 35.827447251787525 0.7726873582697755 24.255854783684022
56 9.332610887961906 -2.7250864849283505 11.412098407170394
232 11.561556106110048 23.713615753189597 7.857877050805723
44 13.002934163176153 -31.516779823582 10.088975412613092
170 -31.46503574507866 9.349295558189059 1.4428509797612907
28 30.08957891655645 27.24590490342425 33.69583917952589
167 32.69747939543211 8.080048928351752 26.31473609021051
38 32.68440918241967 -16.494985807231128 -2.7245868290294135
51 -10.738763580173822 -3.0514995419157067 -26.755047535392546
57 0.009571747487335358 12.82126286991695 45.42964111765082
54 -20.425994801127192 -14.142488630024033 26.281830746341775
138 14.430833032544525 -6.966335908807123 32.38310195780712
81 4.590352796401128 30.72870073951491 5.696863248915081
92 35.67679396843636 2.183939084699576 -10.286127758513997
10 -40.74573333855175 8.4830347245861 6.967995443734952
234 -11.938933706809072 -4.240446127501708 -5.600336676659328
132 -12.124796188072272 7.315265488044422 13.945967032957423
198 -65.10677222058969 11.56271242770364 -20.836699069131633
104 -29.41853316885965 -55.75812904135167 21.594578604428754
201 -35.372945641297825 -17.821451147949762 49.09241929416224
218 21.852167661932878 15.236114302662553 -12.923672212126686
98 1.6646214246255568 -21.747068973474583 65.58913225792728
200 -1.285479112637971 -30.624856601986714 -6.061076591192757
186 -20.69395221914261 -1.8258426015976243 1.9078212166469493
97 -6.686598294936424 -29.115336352780016 -19.01054624451407
131 -2.624826757480445 -27.44507129315052 -1.9361249151069182
213 9.848343447356907 18.84606636064496 2.270209042539834
148 -19.849973840512508 -37.370040287705464 -32.581903564737225
105 19.4909821983852 22.781855697967504 16.537950315268038
193 -51.503758272042234 36.92182842888583 -4.989909825999912
26 -90.1169032484115 -6.39409923316714 -14.132983062058116
241 -1.853229759649191 23.977244026263335 -15.250644133783569
171 -17.205316958465747 30.5676175446187 58.93415119801319
74 32.988973670714856 -32.342922870936356 -20.46008260149059
88 -25.87181914332595 8.488478352891764 -12.04778206304718
39 37.06144688299386 2.0982020630706026 8.024817607090712
60 -11.767476559092303 16.742862931677365 2.6265065230541746
1 -18.681084470101794 1.6008134341503326 -16.808967242777335
216 -26.85842362132139 29.34055368012407 0.760207536392682
89 -41.63052514647199 -18.490079839762966 -24.42273368432889
141 -8.336139742522978 -6.500563148410209 -4.423286379951969
142 -2.9809186539586383 7.802110163431853 -4.57754785827745
143 10.8617216745223 7.093899004726327 -6.542309234549591
144 12.537208874406264 2.2683965851996777 -0.41130297074417604
229 -5.7683338465017435 24.62825357158876 10.13080148265518
178 5.099726196644674 -30.994278388756932 28.96511505271325
184 -4.066379422262224 -33.553381238078565 6.263648165447483
157 4.694465754842158 14.182757849022245 -8.821788068864029
158 -0.3729952454234745 -4.264354087967947 1.3179355501122836
159 -4.1630547574301815 -15.95236134393334 1.9158254451440555
160 -0.4944361256269641 -8.888457184458641 -0.3687178798006936
223 3.05226961163799 0.30120801974218686 5.917343293473446
149 37.27311441814432 -31.274632523460138 23.42626756569015
155 17.54856134282205 -6.364460099083488 -27.552542214442372
196 -1.4466280912492442 41.66707726836516 -9.694725213069383
71 20.27816613494583 -21.638792332905858 10.61514103513687
19 3.7029104932800387 -16.00692325704047 33.62846336663257
188 83.8594327874452 2.626199083322529 -18.62179150596561
82 37.61573277870853 -18.154034604704457 22.489881456170483
58 -41.30099024717613 5.941763418477067 -8.014236810713227
205 11.637279774260916 1.3477923796731028 10.298985148735833
206 2.334313675631286 13.069958724554322 11.7595625938302
207 -0.04178280957024899 -7.9449846485572175 3.1794416750323817
208 7.733465587400833 1.210961869483549 8.895056065493524
123 8.297625526484744 21.448220202213466 -14.648901455591698
221 5.522936994120725 9.255927254073434 3.985363120411291
222 5.10597867706399 -9.640167153366074 7.210015210050488
231 -21.003169205734547 -9.757644738252097 -47.51446314195663
224 -13.913214542169136 -14.067256675660364 -8.834183638988673
42 -72.10341728160033 -41.77978295749308 -34.85617538290739
68 -24.475200193047367 38.50575208089238 7.389905734569309
43 38.40675690459404 1.041429835588397 -20.31636608244653
114 1.328438167508437 20.267548184207612 29.9529236169983
87 -2.9600370942944436 13.916826897021927 -8.832419988678614
139 -13.198258150259386 9.297072977379287 -22.867417451270217
124 -40.2785025717887 -6.989401389417835 -61.169047128115324
165 -23.524960160480276 2.65380477201242 6.118863393139028
130 19.641536635015274 -8.287610495449453 -5.8177598949110845
122 6.247435618730444 14.901846192430186 -20.101295471014296
185 32.87358965413102 -27.723621950186224 20.671044792507047
150 -5.27419462373188 26.479383385069756 -1.5981651952497413
226 0.5628287076372758 25.280769874544486 -81.5746236827678
239 -4.080624382158397 5.450844859923367 -1.61912541012436
36 -59.89841715575236 -0.7172143748214732 37.0645530779297
203 -33.36225541514004 -35.07795036768128 12.68430886442497
41 14.78914983947554 38.89803556817053 17.63162023251181
254 -1.4327372381595338 -2.893108315549998 -7.857564785568069
91 -31.637850520852776 -0.08998548887648106 -18.995639386221946
7 22.00804974840377 33.152443505879354 -31.915478995251178
168 -17.977808638446263 -46.88336430750278 -24.574462906225335
240 11.678907387491234 -14.00199533814193 -0.6801098128698999
18 -10.196609437127883 21.586549273781674 41.55956877942709
55 8.730544583925434 8.820829994009262 19.43843083366488
238 8.38849660398823 7.612817511648693 2.5011751411806395
253 10.61763391878615 6.639580289377021 -2.076528785028018
37 -6.635406535167846 -9.555841215592535 42.73318837184915