LAMMPS data file via write_data, version 23 Jun 2022, timestep = 2000000

256 atoms
2 atom types

0.6188234117125334 11.06717658828835 xlo xhi
0.5392967131244276 9.644903286876472 ylo yhi
0.5089539256086427 9.102246074392712 zlo zhi
0 0 0 xy xz yz

Masses

1 1
2 14

Atoms # atomic

1 1 10.25216309707982 8.458120998295582 7.45343649551345 -4 0 1
2 1 5.982949390301015 5.721344964619146 0.6739296643259032 0 -1 -1
3 1 2.4839448031992672 6.559319896487335 6.1676126895725565 0 1 2
4 1 6.135729216843783 3.7000311117408526 5.773540670021903 -3 -1 -1
5 1 9.926939581638948 7.701822914662983 3.692473632204523 -1 2 2
6 1 7.165963347646042 4.964128959834731 6.504654036797821 0 -1 -1
7 1 4.448984441055948 1.2357322890659201 2.6060245884885505 0 -2 1
8 1 0.7713664525353123 8.212620149377539 5.775690018520768 -1 0 -1
9 1 1.183370502546313 8.540491047845183 3.5853363859317047 -2 2 -4
10 1 6.052417062246569 8.827776755873117 5.649534233141646 0 1 2
11 1 2.9961366423427735 8.022967062821555 8.798571175259504 -1 -1 -1
12 1 7.104407265126588 0.7981080834455787 3.888004184297506 -1 4 -1
13 2 1.5399249269095057 2.1597999918285495 2.032318495900038 0 0 0
14 2 1.3704304361791397 3.5403401178272227 4.202631624753417 0 0 0
15 2 2.806838916869851 1.3011042751409914 4.396934176215601 0 0 0
16 2 2.8385897598091323 4.422538564339478 2.207429142695543 0 0 0
17 1 2.0531554389793114 5.46902406096428 4.793782982603184 0 2 -2
18 1 5.976885804992181 9.054464872058931 7.373159359438941 -1 -3 0
19 1 3.836652431042471 6.492360683665998 5.692765565890624 0 2 1
20 1 10.091363723682468 8.53344796918277 0.7701842879083116 -1 -4 0
21 1 5.053469329068187 6.789903057968416 2.158552697871958 -4 -3 -1
22 1 8.603955492043886 8.149027794782528 6.567124000570628 -3 1 -1
23 1 10.885558880385888 6.326854408992931 0.7517056608816026 -3 0 -2
24 1 7.160557226534628 3.747612301281465 7.544372693637359 -2 1 2
25 1 1.0213955132162424 1.2334980460773883 3.6906632468722336 -2 -3 0
26 1 3.700768265488393 6.83680894954825 2.976504436807963 -1 -1 -1
27 1 7.724097692065813 8.186592106909734 8.606941823416882 -2 0 3
28 1 7.709569662038635 5.100453266301681 8.53861148481981 -3 -2 2
29 2 1.4034882624645175 2.2132416114782667 6.312070319288519 0 0 0
30 2 1.2728946706400017 3.5942879005413526 8.409950896596435 0 0 0
31 2 2.775034432497046 1.301174466278885 8.407647630619836 0 0 0
32 2 2.9135396565849576 4.280906990499612 6.471958217628513 0 0 0
33 1 8.503125062346184 8.46057919313791 1.4292414551956159 2 -2 -1
34 1 8.394378511712539 5.523657635180099 3.50018696142971 -3 1 -1
35 1 6.6536253998318164 7.353159168457627 0.9103908736801368 0 -3 -2
36 1 0.7296998906841261 4.473404331787096 1.3181561443316945 2 2 0
37 1 9.090737580480454 5.978735230632095 1.5108052277573505 2 0 1
38 1 10.562687071702275 5.4482310987654445 2.1505533351065145 0 0 0
39 1 2.1018652033557523 0.5511009081532362 4.539810726740081 0 0 -2
40 1 5.2266718427853815 5.125326951063834 5.0098516580518355 0 3 1
41 1 1.104600269437782 7.608890723629142 0.5618997090366538 0 0 -2
42 1 5.922257821023306 9.515345068773449 4.207577948255958 0 -2 0
43 1 10.845331973277247 0.8503761795772786 5.24055118251223 -2 -2 0
44 1 4.6716022033395515 6.287373085196513 3.8733609379312592 -2 2 -1
45 2 1.6759712688691804 6.705429734482005 2.3958041030778325 0 0 0
46 2 1.4244525300463633 8.06565390650047 4.405409964758645 0 0 0
47 2 2.877316022664263 5.738909943426672 4.415540675782946 0 0 0
48 2 2.9164244123586456 8.892909278613143 2.2400992212961004 0 0 0
49 1 3.207582512415844 2.2463025841825535 8.590061920804436 -2 1 -1
50 1 0.7709160389364254 3.0553952700424234 4.864732699209894 -3 -1 -1
51 1 8.570471530763731 2.3516085110055296 1.7127511091343641 1 2 -2
52 1 8.649611949292115 7.022357062045223 2.3709939821261887 4 -1 0
53 1 9.54174014322982 4.447793359195432 0.6009473779425222 -1 -1 0
54 1 3.43960899466189 5.338470138526726 2.190728290500641 2 1 1
55 1 0.8960564944771963 6.387053690517943 5.5759574702800725 -3 2 -1
56 1 3.8338581700858114 2.491570861026388 4.419233772766895 0 -1 2
57 1 10.126699538729532 9.135150746553851 2.5223004535391658 -3 3 2
58 1 8.772051181890603 1.4942756968683546 6.758481185274305 -2 1 -2
59 1 6.180563490385871 7.477030410691567 8.013809978374905 1 -2 -1
60 1 9.019987079372301 5.744933751433365 6.873202391960719 1 3 -2
61 2 1.4839691905447308 6.47740919743729 6.404148421009319 0 0 0
62 2 1.7997817227532829 8.134206944977237 8.51451333296657 0 0 0
63 2 2.9035241017025024 5.8698048564370415 8.66483964261799 0 0 0
64 2 2.92789759932215 8.75780000978262 6.500197998014626 0 0 0
65 1 9.674800196445087 4.112643175400766 4.907482745080171 0 0 2
66 1 4.9331460210319715 0.8142208903748631 6.382865164637657 1 2 -2
67 1 5.666143269060715 1.6708968245883473 5.430702342743135 -2 2 0
68 1 4.647818925947098 3.5597181181447692 7.643304377281123 2 0 -1
69 1 7.174728345912815 6.17188856987687 4.295137353714383 -2 1 -2
70 1 5.67447127482708 2.109053890606741 3.90509290011132 -3 -3 1
71 1 7.638440431959007 6.532154830933902 6.581374161160803 1 1 -1
72 1 5.847936799992975 3.926645450610069 4.574332597496027 -3 -1 -2
73 1 2.048806810129542 1.9550349615433777 7.077278497923488 2 3 -6
74 1 7.518175283296951 7.844267244127731 4.344068589464365 -2 -4 -4
75 1 10.178975628259277 3.229017764460233 3.6652086506700234 -1 0 -2
76 1 4.608835440716349 4.796304557477901 2.0250352201449484 -2 2 0
77 2 4.121807140477432 1.9283837995537678 1.9759131749672696 0 0 0
78 2 3.892793269421417 3.5441834727469046 4.257036205063117 0 0 0
79 2 5.317131334362288 1.3174939546001427 4.464430329897485 0 0 0
80 2 5.3500698531710515 4.114223880213357 2.0365826005363523 0 0 0
81 1 2.914165492292288 4.8635285401170485 8.36201647453494 -1 1 -1
82 1 5.930052264840001 8.86382853989588 3.0725920783555116 0 -1 3
83 1 4.369082937596638 3.0013973789011854 2.2360814926692267 -2 -1 0
84 1 7.633634897641645 9.097639350373466 7.305648255422908 4 1 -1
85 1 4.670843289386456 8.111046419003136 5.018761036225441 -5 0 0
86 1 9.84307189770234 3.008876821998529 8.70775496843728 0 0 1
87 1 8.43176234642236 3.6188444607011565 8.258934990467393 2 -2 0
88 1 8.624587182597356 1.8303131418694703 3.4672134905286205 2 0 -3
89 1 7.621401047860409 6.298209349581427 0.7346224123455484 0 3 1
90 1 9.79826053539925 5.314436626898743 3.924501224704492 -2 -1 0
91 1 1.9932282240571109 2.0001080536144045 5.414839722349191 3 -2 3
92 1 2.932685759108975 9.51068064849862 1.4637578271482623 -1 -2 -1
93 2 4.2221921770205375 1.9810569383596377 6.52256127606576 0 0 0
94 2 4.012961995703865 3.6642237074908057 8.427976139578874 0 0 0
95 2 5.413950694032555 1.5167041149808003 8.555594252700729 0 0 0
96 2 5.337816071151631 4.116577550775454 6.242491722772768 0 0 0
97 1 10.179544732896876 2.766399086677427 2.0660691499007515 2 -1 -2
98 1 3.078006749187591 3.612247495821511 1.631348105325235 2 2 -1
99 1 5.535168156632862 4.015474907622449 3.01025274442706 -1 1 -3
100 1 5.986857522359722 4.460536926243003 8.475613590631905 -2 1 2
101 1 7.674494208707389 2.7281627584054435 6.238453659962774 1 0 0
102 1 0.9068594891865301 7.188425917562495 4.343156769719915 0 -2 0
103 1 0.7775007291158197 7.219345615442645 2.2843565198887745 1 3 0
104 1 2.4104846597942484 3.8054784910083175 4.526044275941613 0 0 1
105 1 1.0568369633776202 3.5204712672238156 7.499043188064422 2 -2 0
106 1 10.923327636187238 2.3269455134458448 8.64227838098159 0 2 0
107 1 9.197700239744707 2.2720588058573736 5.391677647360119 0 0 0
108 1 3.503067579370276 3.9667552181112975 3.265013813147976 1 -1 -1
109 2 4.115726552479236 6.457565607947868 2.1398957285514877 0 0 0
110 2 3.975426690023008 8.18754066310011 4.315359397574014 0 0 0
111 2 5.49515019671753 5.884582932383262 4.311997807898964 0 0 0
112 2 5.434183409777424 8.808707909500948 2.1335712725449985 0 0 0
113 1 4.521844186595089 3.5736201364607334 0.6230618743842282 1 1 -3
114 1 0.792227737522545 4.891921957338183 7.001133680061475 2 0 1
115 1 9.982780809540733 9.21711035940324 4.297603343092273 -3 1 0
116 1 2.774426796266378 9.266396397991546 7.358188702677329 0 -1 0
117 1 9.055655542248688 7.954215343687589 5.278615410450762 2 0 -2
118 1 4.592594179055141 5.729639588179055 6.671021906713946 -3 -3 -2
119 1 2.425638290570656 7.303179977000845 2.1893195041057725 0 -1 -3
120 1 1.4173038458126626 2.7781834628290976 1.2598781879880392 -1 1 -1
121 1 4.514486449205809 8.562521158335842 7.8439989222692335 1 3 1
122 1 0.6880504312991337 4.917016073863456 8.495688429166638 0 0 3
123 1 5.704389070144256 1.795696731537495 1.8614360814949478 2 0 3
124 1 4.6334211542068955 7.159756840836549 8.706691165971476 0 -4 -1
125 2 4.131916496617698 6.633702828551612 6.6679618456787075 0 0 0
126 2 4.161198066642127 8.115597589171706 8.734460062381816 0 0 0
127 2 5.268899183615059 5.931852566848619 8.48947153303419 0 0 0
128 2 5.380645540617894 8.856594313435858 6.549644862779176 0 0 0
129 1 8.607101564149504 3.7538872480402854 3.4700951702612963 0 1 -2
130 1 2.7532156402454127 3.4616929672619214 6.910485881801429 1 -2 -2
131 1 8.990873113420347 1.519835465031242 8.434491432280806 -3 1 -1
132 1 6.59499647076094 7.088155211428163 2.9209981795514492 1 0 0
133 1 9.095321128079643 4.301452082406981 2.159299130488215 -1 2 0
134 1 7.380361582287264 1.626498201206048 7.304510504887444 -1 -4 -4
135 1 6.125107190964828 0.671413569506444 8.576151739646752 0 1 -1
136 1 2.8917111120082613 0.6184294608508785 2.9281901837928976 -1 1 1
137 1 6.410193278354568 5.604440662305829 2.1228054186592322 -1 0 -1
138 1 8.406627044598407 9.64062674666353 4.577323113750281 0 -1 1
139 1 8.614502590096322 6.964766543470567 4.289511816376849 3 2 -4
140 1 6.812453222545241 2.373212317090678 3.0522188489750532 -1 -1 -3
141 2 6.754266213203276 1.8811472690383089 2.110077711106156 0 0 0
142 2 6.633595721275584 3.4843233051191396 4.155815524387446 0 0 0
143 2 7.9693400368064085 1.259114641040297 4.169452135616942 0 0 0
144 2 8.031855165358321 4.330747422740143 2.1745449747142307 0 0 0
145 1 7.198038738830296 3.936038521801258 3.3727225973613693 -1 -4 0
146 1 4.728089785381016 3.8406183474021782 4.394365165819621 -2 4 2
147 1 6.178220687350599 6.241230702816174 5.6912226982241245 -1 -1 1
148 1 1.0113371224394916 6.137357387440784 7.33485979615372 0 0 -1
149 1 1.320339980038514 8.920838764726973 2.2145074474822417 -1 1 1
150 1 1.587851299225234 9.025752871881926 8.572878829588666 -1 1 -3
151 1 1.2075356819101564 3.244510738821841 6.295097659012576 2 3 1
152 1 5.881719155086788 6.029503887342904 7.615107238755092 0 -1 -1
153 1 8.760708832442507 9.141845665899154 3.01242986126762 0 -4 -4
154 1 8.659551460483192 4.34235629630284 6.765502673622329 1 -1 -5
155 1 2.41576976729682 7.873918555384577 4.219562223677631 -1 -1 1
156 1 9.92686023290079 4.157823354428181 7.200169715351911 3 -2 -2
157 2 6.886198261156802 2.036536768292857 6.388746783528117 0 0 0
158 2 6.741501015978435 3.7217697493271618 8.499624623690798 0 0 0
159 2 7.995685683773771 1.502521341116839 8.458300679476839 0 0 0
160 2 7.932796227003326 4.4931802281957 6.142177922593092 0 0 0
161 1 7.399826527007993 8.444933800877001 2.567508225803911 0 -3 -3
162 1 2.089286803786656 4.27795782670031 2.927494641792717 0 0 3
163 1 7.4321825005966735 2.46111327201318 8.53569338741313 4 -1 1
164 1 2.498231807194739 1.8823016478475303 3.6482030786403707 -2 2 0
165 1 7.799056773089511 5.34557247800846 2.0588455213825627 0 -1 3
166 1 3.7686595157466956 6.212061685549129 0.901882482176139 1 1 -2
167 1 1.4361206744073658 7.610508248210351 7.563727083960536 0 1 1
168 1 8.968111675539946 9.103324940105594 8.227482799604637 -1 -4 -4
169 1 3.617325870042927 9.122419609537811 4.442966726309144 3 1 0
170 1 2.2965116042943046 7.94657712876075 6.345219162926042 0 0 3
171 1 3.7521046097133395 8.740597194328547 6.050541104747342 2 -3 3
172 1 3.298802892944607 6.437603800019336 7.773043839165789 0 -2 1
173 2 6.8572285410364255 6.540166943063673 2.164812747212599 0 0 0
174 2 6.6109667013282545 8.238651127630577 4.294270671162354 0 0 0
175 2 8.183920372320577 5.986815166893705 4.295082373893794 0 0 0
176 2 8.128415829870397 9.014175449558365 2.288246344568883 0 0 0
177 1 9.022677113103203 7.2968185824034455 8.520809263177357 -1 -1 0
178 1 1.6807865299424125 1.1503105348417328 1.8704219373255262 -1 0 3
179 1 3.461929659620817 5.042274059976182 4.062624641872258 -2 0 -3
180 1 3.6035332512874505 4.876286624133688 6.864520025878474 0 -3 -2
181 1 7.654127904111496 1.9094554718655252 4.91809273260331 0 2 2
182 1 1.5188558092326163 2.8172345729805945 3.4116666206120074 0 0 5
183 1 2.505436033174782 6.272804951691025 3.542706907787581 1 -1 1
184 1 10.76640195198623 0.7839047813131519 0.8821578337885354 -1 0 -2
185 1 3.51846633295541 0.7590269210948009 8.628490449813821 2 2 -3
186 1 10.455691336038628 1.9949958822787726 6.55758949599337 -2 0 -1
187 1 1.5489263058906233 5.769703161508624 1.9371178183809974 -2 1 3
188 1 11.02319220898117 3.9400757624311598 2.746542941896995 0 -2 3
189 2 6.619872353329634 6.613940330979332 6.519149902865003 0 0 0
190 2 6.712794828484048 8.117164606605884 8.661496310089074 0 0 0
191 2 8.25810483618685 5.995092603925585 8.562216716211125 0 0 0
192 2 8.120671880039557 9.08236810848664 6.412208671938673 0 0 0
193 1 2.2414176516517035 3.5878726627867867 8.565283700948227 3 -2 0
194 1 3.358865045905337 2.0678654607815794 5.953996878051412 0 2 -2
195 1 7.281665974539435 0.9282099720602627 1.918928191138667 2 2 -3
196 1 2.2240578884016093 4.950112137135305 6.218037185466743 2 1 0
197 1 9.671516975983064 1.2276874149208719 1.8028486470016922 1 0 3
198 1 8.1502651237454 5.1186494538080405 5.293499885579924 0 0 -1
199 1 0.8209799491528813 6.221212008579134 3.41320830781407 2 1 -1
200 1 4.344332818556992 1.1905021089662768 4.460272061909906 2 1 -3
201 1 5.601657423451876 4.729368275307209 6.9581434322089235 -1 -3 -4
202 1 9.300884597069379 2.941174139607548 7.081949681761741 2 2 3
203 1 0.9205339317330175 1.0917964754708516 7.9689052974306485 5 -2 -4
204 1 6.091666592004593 2.425743133011505 8.517439105819191 0 0 1
205 2 9.406192232238757 2.135099670546163 2.2064082554696203 0 0 0
206 2 9.274297104079817 3.5146038356290354 4.217714642587609 0 0 0
207 2 10.63836152528655 1.1393797411953654 4.28081085818767 0 0 0
208 2 10.602254686294211 4.44289979860791 2.010223186018956 0 0 0
209 1 3.33803773888591 4.094060215375757 5.577100232590558 0 4 2
210 1 4.471043944348249 8.806794668887298 0.893942454821224 -1 2 0
211 1 4.612139243798737 7.479236583505001 6.2938210463003506 0 -2 1
212 1 4.508122162899017 8.25782412431376 3.421101516015471 0 0 0
213 1 4.758662208226481 1.7287657197599136 0.9146728753216894 2 0 1
214 1 5.957042450242957 5.456771387196155 3.58686521084381 3 0 -1
215 1 4.715817941878368 4.997798209411562 8.397280384543913 2 4 0
216 1 2.0818961148321224 1.3961014677019006 9.090380325070504 -1 0 -1
217 1 10.049550351919054 2.04927062786004 4.217980229720364 -2 -1 0
218 1 5.872235553811341 7.531989548820251 4.358121335870316 -1 0 -2
219 1 7.362537316229886 8.868738774273364 5.631473241606419 0 -1 0
220 1 9.479124249658165 6.004215437545908 5.607700148029071 2 0 0
221 2 9.453260331058855 2.1310014075157957 6.476557758329741 0 0 0
222 2 9.34158770100011 3.8344041065636585 8.505748762200572 0 0 0
223 2 10.512717692354618 1.29870215939173 8.596715738268767 0 0 0
224 2 10.552043071475424 4.435612818986264 6.377341332684992 0 0 0
225 1 5.087008256440811 1.4350804897442306 7.575493783722521 1 0 1
226 1 3.822648766752097 8.544588414737573 2.286461264127796 -2 0 2
227 1 3.9140929601364163 2.0068555320868344 7.455696911408683 0 0 0
228 1 5.8341422463608295 9.202505358531607 1.2590478693335545 -4 1 -3
229 1 0.7584394959191108 4.930378529324252 4.309824484020352 -1 3 0
230 1 2.0831141785134117 6.2805535551028715 9.003285170693367 0 -2 -2
231 1 10.444023009291145 5.135607084937848 5.58123425198431 -4 4 0
232 1 9.893262756858762 7.317803068562012 1.473227018770836 0 1 2
233 1 9.82639265826899 5.769175717135927 8.349914929326166 -1 -4 -2
234 1 8.186983278502273 0.84493853808264 0.6194961340767585 4 -1 1
235 1 7.859633192774413 6.402134544404329 7.789176578018881 1 0 -2
236 1 5.4612631760503865 7.9069412838252084 1.8416941194324719 3 1 -1
237 2 9.530085997519603 6.67170926026695 2.081050485275585 0 0 0
238 2 9.333882851799963 8.1334569362982 4.297894444128622 0 0 0
239 2 10.671633776953072 5.719060762290612 4.280443619732828 0 0 0
240 2 10.781641831957119 8.794199661490678 1.9100491675772073 0 0 0
241 1 10.040570197966286 6.746215577872342 7.024970324130754 1 3 -1
242 1 4.642874257369474 2.966942936215423 6.237598244209426 1 0 3
243 1 9.796929703672946 9.178988108396638 6.093845550558582 2 -1 1
244 1 2.3055542424441597 9.295842356923972 5.829564942204958 1 -3 1
245 1 0.800544678516617 0.6031648515824557 6.655883917688595 -2 0 2
246 1 6.028268664729754 3.54760387687876 1.5399559255513384 0 2 -3
247 1 7.674382178186303 4.0438327920383985 1.2316111271471843 2 2 0
248 1 7.089814613600548 2.6931416191917825 1.4788737153668845 2 -1 0
249 1 6.463006103494837 7.630520251454132 6.357847339746312 0 0 3
250 1 6.261636999508111 2.7172995551294865 6.88169745704248 1 2 1
251 1 7.279981546844657 3.470166680448479 4.920593033514958 0 0 2
252 1 2.885855635955566 2.204814053651732 2.0342607066826845 2 2 -1
253 2 9.325578713677302 6.557411647622299 6.422031129384012 0 0 0
254 2 9.411080266373519 8.24692201716067 8.606315139394168 0 0 0
255 2 10.852019545308439 5.870605411791783 8.508448294351602 0 0 0
256 2 10.667910983173174 8.765079673110614 6.508089202312704 0 0 0

Velocities

1 58.00733329500456 6.430814306231609 22.65948110370266
2 -18.17900745303714 -26.03322084002427 -34.24909113718699
3 52.638715311949134 -0.7794450888867093 6.114970428228879
4 -4.450146243318238 27.121948755807917 -34.64950703487026
5 69.85727592967656 1.0242776389795802 39.68976715378826
6 -38.33554167374487 -0.7924505848295196 -23.617341018921813
7 -10.408235145418114 -17.845343212844295 28.963440848634143
8 -3.0284515664430014 -32.38523984909727 -70.13835476530981
9 -3.0744864377951497 3.6978637167602595 56.555131247635636
10 -24.573844594565617 -5.537677891141805 -51.146739010956644
11 -1.6404985287227143 -11.63093302758497 83.77673084996842
12 19.157329237011254 22.623968566663045 -21.54789211605659
13 3.1284901185181457 -7.249575488421883 -5.48593144079433
14 -3.956515891360489 10.01405807169264 -0.7483462333152702
15 -11.630211634549344 -4.700869707731248 3.505075467217351
16 -1.4373140323699516 -7.4094070579029845 12.12222760545166
17 22.28330113982635 25.39772105832659 25.539498845328314
18 -53.65349961630578 -59.280251097997045 -11.187366992117061
19 -43.07982253280801 -5.846439485628407 -2.9604930228630155
20 5.83530184966633 -23.038500769139702 -11.228881963630403
21 39.13927927383779 2.2794423282975704 12.419185042142
22 -12.213475542418148 -24.476966696230885 22.692839470615002
23 46.39124489333263 0.5709092946426029 -35.21690152390716
24 16.98075534790531 -22.571994864528556 -48.75671544020338
25 -27.01585308427044 46.688017010076855 39.364539726887514
26 29.71947660435871 9.635755199920728 -4.446478568230652
27 4.196624707012093 -13.511069347589155 4.593599373808493
28 19.162649790056275 -34.23600083322765 -53.77180330883561
29 1.934340567030629 10.619593639046832 2.3572923262715713
30 -2.562607763412779 1.9994815454943065 9.901311503756043
31 -3.3170906909834756 -13.86742463847481 -12.781064806786821
32 4.933725233879804 -4.630089244144545 -6.359947498128492
33 -4.093434653170856 -6.2654827253915375 0.42137399480391696
34 3.272352807345027 -5.828253762967213 -18.002314934773977
35 10.753056792669156 -15.227400708474203 0.4385787272352434
36 -52.597988527648546 20.601620509823068 23.170724080516482
37 16.191292226503283 -2.3070872210276123 29.3935496287907
38 49.7692327869326 7.214636468679724 -14.4105188521302
39 21.691134952526617 4.202008316179224 7.554984776412879
40 -7.667037216737768 59.08213284346769 -45.39157276931713
41 -23.66770320198281 -17.71102748625684 32.021438778144386
42 0.32033010015768404 -25.762354377374155 3.5740274556111395
43 -53.57380797346333 33.65782756832721 -3.109351011712796
44 43.54654552479643 1.731819386732382 30.57181966289007
45 -3.1221821427252756 -5.951993389080113 10.473824038734522
46 -1.1890039932426877 9.54776123468155 0.9399675046613076
47 8.09749940535414 11.915877521095116 -2.4880430954429116
48 5.731973711041113 0.16814761711952086 -10.528168946632519
49 -0.8476432849530084 -24.94237478585904 20.726989050393644
50 56.93664862933785 -4.069262647141609 29.508875254731592
51 -6.731201109667685 -39.25196657744987 20.77388015930771
52 39.205418872920696 -11.76842440097057 32.12657189446011
53 -8.94360902502975 3.9833928080555228 6.926906850632487
54 -34.267810223696394 -27.686020490341097 71.51848852570262
55 -33.73064385655336 15.290496710825256 4.396381553838181
56 29.883817650110668 36.80347521852691 4.543005152007738
57 -16.40450972543464 9.656002493718095 10.448075314046887
58 -24.719412213000968 55.07204064257727 -28.580443993515804
59 -9.787133528304409 32.02484469301655 -2.967739736318716
60 4.080058362523789 15.859418783917578 12.132991410288085
61 -4.330342304867159 -2.7396662269519156 1.0350999717625928
62 0.7663837296083537 12.65897352199468 -9.041640080517777
63 13.95133694444458 3.910170092068275 -8.080435620888515
64 7.2243097517182315 11.42464756288205 0.22352360370779073
65 10.923657892295154 11.677495760160781 -0.14803416643656628
66 11.812964356610177 25.490271025770426 -14.456863944622807
67 2.122026915849089 -16.478593126067008 4.812958184706754
68 -11.95685289991302 -42.76900912377382 17.819703329203083
69 -18.687278072473287 -5.871802542931305 18.84415124700382
70 9.760784151309776 -15.633563391131597 -50.988879675990354
71 11.331098902025966 -13.165598806369706 22.54618442216367
72 63.99660478162852 15.133999472040438 -9.373829077816357
73 -74.92370184040313 4.678859482276344 -24.72767667578759
74 5.325689763840028 -24.359000182251204 4.213580819013544
75 -28.56208881145025 -7.0866031669622025 1.6229217850956217
76 -7.233850571927311 -19.808187217348255 6.5944998821462955
77 5.476025483579675 0.1553831022300726 5.30210189154876
78 -1.3184215527790473 0.851311634482216 5.194215484038155
79 17.290184580426782 -5.494949253604634 -5.370247199951248
80 8.365015575924675 0.8667932401391073 8.28499266420522
81 -3.469497433341922 56.271477650458685 7.996191841873235
82 1.5472729816315682 -0.857283492567973 -6.407842510236811
83 -31.044547041501257 9.60048564069005 85.67492285654394
84 -30.51552069363818 -0.46558873516184834 -27.744256947995442
85 -28.612410393738955 -16.473132994958387 10.951974601191127
86 -11.591324530026386 57.359599512353945 39.17959559239261
87 23.068726888629882 -23.867995174854702 -13.477040951633144
88 4.367308643345925 37.73989097794842 -17.235060861359454
89 27.37931857971312 -27.834582677367585 -6.804256327555041
90 -37.311116941476605 -40.29605309240478 23.38535394913203
91 -9.885339781269305 1.715848610142809 23.02336972933013
92 14.18106860160375 26.636981956615163 -4.887824664362492
93 7.668910860436736 -2.075414001488143 11.670550837516824
94 3.310556141317537 4.812872873541195 2.301332360960494
95 -2.170310802486881 7.421955526571609 18.16252496878093
96 -0.17888862040855336 4.964897211292497 -13.439105369870049
97 -32.88438259837035 7.660129534548501 7.4735370778454016
98 15.020535483420186 -12.240774731736701 68.55183174142323
99 -17.24942222556366 23.13032979105882 7.204463087319203
100 7.578987488902569 -17.945142452593544 -21.307533637769932
101 9.565722631937941 -16.081473692413283 9.098297147453152
102 34.831864037978974 -17.986450713099444 -42.870379773526345
103 -16.0165449454361 -19.85249036552464 36.40653038116164
104 1.9416537151170414 8.28534749774295 10.293775100142165
105 -64.44859718204037 9.352398865448146 4.603353290359808
106 -18.30504250139415 51.798360433868694 51.432244400682826
107 8.121702680792632 21.53350476180791 19.61943693389885
108 29.823436618821304 14.427227535486688 12.539874770392096
109 -11.378615987820863 -9.438529939927239 -1.325947299397729
110 -5.261625100856625 9.901222549600577 -1.7615527787385166
111 -8.399295500115084 -8.782695961016556 0.7574678446984869
112 -0.8225800955888677 -5.919896422223162 -3.579425361273412
113 -9.38255584813938 -2.934605343582135 6.843792445756601
114 -61.85370862122078 3.4247727767925014 23.096018613042148
115 13.09329911745006 -5.085774861868336 26.388779463640322
116 -7.98908961839504 1.2881530838981734 3.6958290285910835
117 24.962511437093017 -43.31537435344148 -41.83604696986329
118 8.248750562834324 -4.503235488199426 -4.641088527632038
119 -43.94772341742317 2.415934232178666 18.37976718250949
120 17.897680992458376 -6.853629936330792 12.088180137802778
121 40.729821258087796 20.588798166351875 -24.109820848249832
122 31.50872814530063 -5.054167287832435 70.73295969744892
123 13.322127664831585 -20.342491709785758 -6.400821384792251
124 -11.061468195553692 11.564715321447382 -25.54658637954869
125 10.528039369122617 -2.101511201467719 -14.006972459413138
126 -16.164095447284662 -8.815516149567413 -0.9729136292685148
127 -9.823552695202766 -2.9521681837495506 2.0335122280143683
128 -3.1051742234762094 1.655399350833004 -6.131701235856429
129 -16.713952431701546 -1.0776073412207299 14.562350359848185
130 -6.033400805673021 17.21083480616843 -19.26568470966327
131 30.46464634391496 -37.02179352547835 -2.8798398180562153
132 35.865773772362914 32.275364876130304 -13.059392010671981
133 31.818350666887536 54.30528383718977 -13.957834641492841
134 -10.274398991683404 -36.64174731777463 -28.731340151899087
135 -29.131732258385124 8.244631989521572 -37.690783731816246
136 -11.396292471383857 -17.75234707336302 -68.83975033943892
137 21.071648866466447 -41.97194418501997 38.03993869491638
138 -25.91636480865627 10.560506200717947 3.0995252134749123
139 -8.73462685075795 -0.37887172937029423 3.6484228784691677
140 15.212845206693386 -5.212385417965857 -27.015826051506306
141 -3.0723203912800234 -10.64436060228124 -4.2126352073952775
142 -7.93399739700385 -7.328748248921128 -7.347986541609964
143 17.9501645543789 -4.2745543669358215 -14.745141621252916
144 -0.32878589107100176 1.8516294356140393 5.8361063817007786
145 -13.225406955539832 -37.0865482628189 -4.425339082364864
146 -43.9975212200739 -34.25818397255494 -41.77848192304613
147 -18.7164071170055 18.845234020131382 8.209614483919564
148 5.780219594559463 -37.40502814488558 75.2659463006495
149 -49.67712321215631 -2.5171013434902063 -4.9159136151608225
150 15.512347216300444 43.017594170583365 -19.002946674248115
151 -25.169201264317262 -8.407658967463771 -15.306834808632436
152 -5.97603160822421 -38.780233792056606 -18.23743486840026
153 -20.90956831934256 31.022319266373184 -34.08731426458598
154 5.302556872305467 15.838276331494102 -6.85951364012222
155 40.36367694166709 -7.367809483733648 -14.557619739030592
156 18.241299507831673 -20.12371593763551 45.54852449747337
157 -5.988656818948868 2.476375063096868 -1.206521049025329
158 14.137806999459576 3.562000223103391 7.439411074769356
159 -2.1562647332133036 3.329752414507123 3.222356511416719
160 -1.673838047650742 -6.783260159782912 -4.987436196774399
161 -42.07638540193211 -13.49663343492269 1.5420216324575202
162 -28.044794222097885 14.511567113319225 -39.83585609462536
163 16.18888909249575 -26.196755178170335 -11.32219334463198
164 15.738619068115284 -35.209840197393866 4.299035698846412
165 53.98352974404659 7.814486441123218 -20.24409039071435
166 -29.16506268900119 9.492327689644334 17.50503516241019
167 -23.047072375633938 -24.340408956799106 7.831689380387458
168 21.14343560792014 81.00409606963704 21.82448220526058
169 -37.31713292384418 -50.01795098989612 -32.39196695330404
170 -16.56249853972537 15.447793823705355 20.828931690315308
171 10.95204146341509 14.716249524117035 47.511669201365756
172 38.59917293720811 -0.4030121843633633 -8.43103610186099
173 5.222515698351123 0.4663580021627817 -1.1823954774249046
174 -2.9723045061496802 -13.524511356038465 -12.447637456154158
175 -5.5364728814678825 9.943664547602896 8.52617629612009
176 -9.705200026043576 10.05801946932959 -2.974862355532587
177 -6.098137518994629 -14.695939285950953 12.449077694554745
178 -38.13835019909831 54.13536804776979 54.76142863054093
179 -12.834251515386427 -28.252487662845926 33.38345225994623
180 15.181589751011515 -6.786169925248512 -11.372834805623418
181 14.728346130912575 10.194956875055567 50.32827512821449
182 -20.03118925025124 13.016129322280273 -21.086443294948538
183 1.9415855396513897 -11.598433409579865 -32.40256129315615
184 36.227654058730174 20.526817189681804 -39.573821051803485
185 53.8635276090585 19.416341473105028 11.238002225542468
186 12.132726256927082 18.50986610028117 5.045330575785934
187 -14.252757473198276 -6.155275452944968 40.55952906658774
188 -9.221151972976626 -31.14805184783362 22.73606083666689
189 -9.574335115879713 2.951994514885407 -17.387666316640438
190 0.4735506711507993 -5.122311202963951 -4.485995143704017
191 -0.307612216827831 -1.050091882408872 -7.242788519893132
192 2.4863990382780976 0.12229412868989147 1.7266561279508255
193 -4.968249648956321 7.438067583164093 3.366078528617407
194 -8.433903417947871 -16.83127690842936 36.667633137486526
195 -12.630277716316389 -39.35974560235261 17.551191160117693
196 -12.197894339422545 -23.70880284949675 4.462119430800892
197 -12.388854414085156 5.869565750963817 28.593092841690787
198 15.854768597387178 -29.76937295032238 -25.678662887656845
199 -9.712602581329033 -19.97740412337309 -59.3205111399087
200 -90.48162742267961 2.9664496146586545 -50.95609955306647
201 29.595256312795314 -0.5389153133054879 26.0062280807032
202 -2.9294628721474165 -29.297978789096106 -18.38191881310326
203 -18.11729499502446 -64.14300184100053 17.885824347422083
204 -14.0268764620419 11.803150428267198 -0.8292115529225026
205 -1.8759788139246703 -9.073394653289723 -0.6633167238073654
206 4.911300583398618 -1.0048839085386145 -2.6599405015312136
207 -6.041715524998217 9.567406523680193 6.935862810396295