LAMMPS (23 Jun 2022 - Update 2)
log log1.log.0
