LAMMPS (23 Jun 2022 - Update 2)
Reading restart file ...
  restart file = 23 Jun 2022, LAMMPS = 23 Jun 2022
WARNING: Restart file used different # of processors: 1 vs. 4 (../read_restart.cpp:658)
  restoring atom style atomic from restart
  triclinic box = (0.61882341 0.53929671 0.50895393) to (11.067177 9.6449033 9.1022461) with tilt (0 0 0)
  2 by 2 by 1 MPI processor grid
Summary of lammps deepmd module ...
  >>> Info of deepmd-kit:
  installed to:       /m100/home/userexternal/cmalosso/deepmd/deepmd-root
  source:             v2.1.0-80-g8c58455
  source branch:       devel
  source commit:      8c58455
  source commit at:   2022-06-13 05:00:04 +0000
  surpport model ver.:1.1 
  build float prec:   double
  build with tf inc:  /cineca/prod/opt/libraries/open-ce/1.1.3/none/opence-conda-env-py3.8-cuda-openmpi-11.0/opence/lib/python3.8/site-packages/tensorflow/include;/cineca/prod/opt/libraries/open-ce/1.1.3/none/opence-conda-env-py3.8-cuda-openmpi-11.0/opence/lib/python3.8/site-packages/tensorflow/include
  build with tf lib:  /cineca/prod/opt/libraries/open-ce/1.1.3/none/opence-conda-env-py3.8-cuda-openmpi-11.0/opence/lib/python3.8/site-packages/tensorflow/libtensorflow_cc.so;/cineca/prod/opt/libraries/open-ce/1.1.3/none/opence-conda-env-py3.8-cuda-openmpi-11.0/opence/lib/python3.8/site-packages/tensorflow/libtensorflow_framework.so
  set tf intra_op_parallelism_threads: 0
  set tf inter_op_parallelism_threads: 0
  >>> Info of lammps module:
  use deepmd-kit at:  /m100/home/userexternal/cmalosso/deepmd/deepmd-root
  source:             v2.1.0-80-g8c58455
  source branch:      devel
  source commit:      8c58455
  source commit at:   2022-06-13 05:00:04 +0000
  build float prec:   double
  build with tf inc:  /cineca/prod/opt/libraries/open-ce/1.1.3/none/opence-conda-env-py3.8-cuda-openmpi-11.0/opence/lib/python3.8/site-packages/tensorflow/include;/cineca/prod/opt/libraries/open-ce/1.1.3/none/opence-conda-env-py3.8-cuda-openmpi-11.0/opence/lib/python3.8/site-packages/tensorflow/include
  build with tf lib:  /cineca/prod/opt/libraries/open-ce/1.1.3/none/opence-conda-env-py3.8-cuda-openmpi-11.0/opence/lib/python3.8/site-packages/tensorflow/libtensorflow_cc.so;/cineca/prod/opt/libraries/open-ce/1.1.3/none/opence-conda-env-py3.8-cuda-openmpi-11.0/opence/lib/python3.8/site-packages/tensorflow/libtensorflow_framework.so
  restoring pair style deepmd from restart
  256 atoms
  read_restart CPU = 0.016 seconds
  >>> Info of model(s):
  using   1 model(s): frozen_model.pb 
  rcut in model:      6
  ntypes in model:    2

CITE-CITE-CITE-CITE-CITE-CITE-CITE-CITE-CITE-CITE-CITE-CITE-CITE

Your simulation uses code contributions which should be cited:
- USER-DEEPMD package:
The log file lists these citations in BibTeX format.

CITE-CITE-CITE-CITE-CITE-CITE-CITE-CITE-CITE-CITE-CITE-CITE-CITE

Generated 0 of 1 mixed pair_coeff terms from geometric mixing rule
Neighbor list info ...
  update every 10 steps, delay 0 steps, check no
  max neighbors/atom: 2000, page size: 100000
  master list distance cutoff = 8
  ghost atom cutoff = 8
  binsize = 4, bins = 3 3 3
  1 neighbor lists, perpetual/occasional/extra = 1 0 0
  (1) pair deepmd, perpetual
      attributes: full, newton on
      pair build: full/bin/atomonly
      stencil: full/bin/3d
      bin: standard
Setting up Verlet run ...
  Unit style    : metal
  Current step  : 2000000
  Time step     : 0.0002
Per MPI rank memory allocation (min/avg/max) = 2.736 | 2.738 | 2.739 Mbytes
   Step          Time          KinEng         PotEng         TotEng          Temp          Press         Density         Volume    
   2000000   400            30.208732     -21021.364     -20991.155      916.48989      872151.83      2.2098442      817.55373    
   2000050   400.01         30.215457     -21021.583     -20991.367      916.69391      863801.64      2.2098578      817.54868    
   2000100   400.02         31.271128     -21022.204     -20990.933      948.72146      868455.38      2.2151003      815.61379    
   2000150   400.03         31.815057     -21022.539     -20990.724      965.22351      907479.79      2.2239289      812.37595    
   2000200   400.04         26.001138     -21018.73      -20992.729      788.8375       886944.65      2.2262172      811.5409     
   2000250   400.05         24.875019     -21018.22      -20993.345      754.67263      889016.29      2.226228       811.53698    
   2000300   400.06         28.405554     -21021.728     -20993.323      861.78405      884934.3       2.2234264      812.55954    
   2000350   400.07         30.107743     -21023.174     -20993.066      913.42601      881347.33      2.2198974      813.85128    
   2000400   400.08         30.446404     -21022.306     -20991.86       923.70051      886479.98      2.2210732      813.42045    
   2000450   400.09         29.657713     -21019.878     -20990.22       899.77276      894794.93      2.22581        811.6894     
   2000500   400.1          29.130145     -21018.374     -20989.244      883.76709      887382.88      2.2295467      810.32901    
   2000550   400.11         30.309739     -21019.728     -20989.418      919.5543       896804.96      2.2285841      810.67902    
   2000600   400.12         29.091446     -21019.735     -20990.643      882.59302      901858.83      2.2223297      812.96052    
   2000650   400.13         29.845017     -21020.634     -20990.789      905.45529      890919.02      2.2170198      814.90763    
   2000700   400.14         31.064655     -21019.576     -20988.511      942.45736      896182.4       2.2182813      814.4442     
   2000750   400.15         33.943213     -21020.178     -20986.235      1029.7887      900142.29      2.2217548      813.17089    
   2000800   400.16         30.564672     -21016.296     -20985.732      927.28861      934729.91      2.2246633      812.10778    
   2000850   400.17         31.292822     -21018.778     -20987.485      949.37963      906436.06      2.2196697      813.93478    
   2000900   400.18         31.134707     -21022.045     -20990.91       944.58264      882931.69      2.2121824      816.68959    
   2000950   400.19         30.260122     -21024.032     -20993.772      918.049        865793.96      2.2080837      818.20555    
   2001000   400.2          30.734769     -21024.92      -20994.185      932.44911      883959.66      2.2109072      817.16064    
   2001050   400.21         28.596096     -21021.506     -20992.91       867.5648       929840.23      2.2195361      813.98377    
   2001100   400.22         28.85462      -21020.125     -20991.271      875.40805      910516.06      2.2268954      811.29376    
   2001150   400.23         31.317054     -21021.377     -20990.06       950.1148       910810.3       2.2296267      810.29993    
   2001200   400.24         30.051463     -21020.964     -20990.913      911.71856      900284.82      2.2230303      812.70434    
   2001250   400.25         27.836961     -21020.045     -20992.208      844.53374      887579.77      2.2123739      816.61891    
   2001300   400.26         31.281471     -21022.781     -20991.5        949.03527      864056.34      2.2062564      818.8832     
   2001350   400.27         31.652237     -21020.988     -20989.336      960.28376      883370.74      2.2094482      817.70026    
   2001400   400.28         31.456261     -21018.77      -20987.314      954.33813      895319.34      2.2186517      814.30823    
   2001450   400.29         29.88698      -21016.235     -20986.348      906.72838      895040.55      2.2278267      810.95462    
   2001500   400.3          28.647183     -21015.784     -20987.137      869.11472      914553.08      2.2293502      810.40042    
   2001550   400.31         31.133722     -21021.707     -20990.574      944.55275      872970.89      2.2162643      815.18542    
   2001600   400.32         27.775069     -21021.758     -20993.983      842.65602      867103.73      2.2023095      820.3508     
   2001650   400.33         31.537206     -21026.174     -20994.637      956.7939       854528.18      2.1992434      821.49451    
   2001700   400.34         29.453637     -21022.205     -20992.752      893.58139      883444.71      2.2107823      817.20679    
   2001750   400.35         28.371721     -21017.988     -20989.616      860.7576       916677.42      2.2287722      810.61057    
   2001800   400.36         29.914352     -21017.044     -20987.129      907.55882      957681.32      2.2416592      805.95048    
   2001850   400.37         28.718515     -21016.718     -20987.999      871.27882      921048.12      2.236386       807.85087    
   2001900   400.38         30.338896     -21020.354     -20990.015      920.43889      887980.58      2.2195401      813.98231    
   2001950   400.39         32.271278     -21023.091     -20990.819      979.06459      872827.09      2.2051662      819.28805    
   2002000   400.4          31.986053     -21022.591     -20990.605      970.41128      882550.32      2.2044753      819.54483    
   2002050   400.41         28.154348     -21017.625     -20989.471      854.1628       892655.23      2.213591       816.16989    
   2002100   400.42         30.304693     -21017.633     -20987.328      919.40122      920354.36      2.2265478      811.42043    
   2002150   400.43         27.671521     -21014.004     -20986.333      839.51451      923702.03      2.2349062      808.38576    
   2002200   400.44         30.326097     -21017.915     -20987.589      920.05058      900719.12      2.2322647      809.34235    
   2002250   400.45         27.771435     -21018.763     -20990.991      842.54578      885155.69      2.2220425      813.06559    
   2002300   400.46         26.20936      -21021.221     -20995.011      795.15465      849829         2.2091939      817.79438    
   2002350   400.47         26.996537     -21022.818     -20995.821      819.03648      850524.18      2.2083368      818.11178    
   2002400   400.48         27.334322     -21019.843     -20992.508      829.28439      923124.79      2.2242495      812.25886    
   2002450   400.49         29.916422     -21018.769     -20988.853      907.62162      932775.15      2.2371099      807.58946    
   2002500   400.5          30.19148      -21016.962     -20986.771      915.96648      930627.01      2.23737        807.49554    
   2002550   400.51         31.444292     -21019.121     -20987.677      953.97503      905058.29      2.224595       812.13272    
   2002600   400.52         31.112917     -21021.517     -20990.405      943.92157      868043.31      2.2088213      817.93233    
   2002650   400.53         30.783258     -21022.314     -20991.531      933.92019      869645.01      2.2037909      819.79934    
   2002700   400.54         32.962424     -21022.961     -20989.999      1000.033       899319.14      2.212375       816.61849    
   2002750   400.55         31.119588     -21019.044     -20987.924      944.12395      922207.95      2.2276027      811.03617    
   2002800   400.56         30.289925     -21016.832     -20986.542      918.95317      956216.09      2.2400323      806.53584    
   2002850   400.57         29.887749     -21017.932     -20988.044      906.75172      946016.88      2.237864       807.31733    
   2002900   400.58         32.066937     -21024.349     -20992.283      972.86519      901080.15      2.2218915      813.12088    
   2002950   400.59         30.407899     -21026.362     -20995.954      922.53234      872552.21      2.2078085      818.30755    
   2003000   400.6          28.921813     -21024.784     -20995.863      877.4466       875841.79      2.2085439      818.03505    
   2003050   400.61         28.928641     -21021.671     -20992.743      877.65375      920100.29      2.2224767      812.90676    
   2003100   400.62         31.206468     -21021.257     -20990.05       946.75978      916344.68      2.2323547      809.30971    
   2003150   400.63         28.837672     -21018.625     -20989.788      874.89388      943130.35      2.2321661      809.37809    
   2003200   400.64         29.369252     -21021.396     -20992.027      891.02127      912374.6       2.2194037      814.03232    
   2003250   400.65         28.241949     -21022.29      -20994.048      856.82048      881096.08      2.206431       818.81843    
   2003300   400.66         28.475252     -21022.205     -20993.73       863.89858      865124.45      2.2025707      820.25352    
   2003350   400.67         29.407743     -21020.319     -20990.912      892.18901      863081.83      2.2093073      817.75239    
   2003400   400.68         30.099205     -21016.66      -20986.561      913.167        886383.85      2.224891       812.02465    
   2003450   400.69         31.357563     -21014.802     -20983.445      951.34379      932264.9       2.2391015      806.87112    
   2003500   400.7          30.666358     -21015.621     -20984.955      930.3736       948034.47      2.2375996      807.4127     
   2003550   400.71         29.605694     -21020.14      -20990.534      898.19458      915039.68      2.2224391      812.92052    
   2003600   400.72         29.767211     -21025.352     -20995.585      903.09476      889353.11      2.2056122      819.12241    
   2003650   400.73         28.838894     -21026.068     -20997.229      874.93094      883841.78      2.2000416      821.19644    
   2003700   400.74         30.26933      -21025.538     -20995.268      918.32835      874875.16      2.2105495      817.29288    
   2003750   400.75         30.333847     -21021.144     -20990.81       920.2857       905599.65      2.2321787      809.37352    
   2003800   400.76         29.737404     -21016.461     -20986.723      902.19046      967902.65      2.2501933      802.89386    
   2003850   400.77         30.067172     -21017.538     -20987.471      912.19515      945941.87      2.2437746      805.19064    
   2003900   400.78         28.669456     -21020.189     -20991.519      869.79043      899138.47      2.2177983      814.62158    
   2003950   400.79         31.638105     -21025.829     -20994.191      959.85503      851100.46      2.1925766      823.99234    
   2004000   400.8          32.192424     -21026.145     -20993.952      976.67228      834782.86      2.1880719      825.68874    
   2004050   400.81         30.325309     -21020.191     -20989.866      920.02666      884468.47      2.2096489      817.62597    
   2004100   400.82         31.134525     -21015.453     -20984.319      944.57712      953749.62      2.238657       807.03132    
   2004150   400.83         32.106283     -21014.951     -20982.845      974.05888      954028.21      2.2506043      802.74723    
   2004200   400.84         28.956315     -21015.316     -20986.359      878.49333      917729.61      2.2411371      806.13827    
   2004250   400.85         29.215712     -21020.555     -20991.339      886.36307      899112.18      2.2206921      813.56004    
   2004300   400.86         29.008205     -21024.621     -20995.613      880.06761      849853.38      2.2009251      820.86679    
   2004350   400.87         29.003848     -21024.907     -20995.903      879.93543      874130.12      2.1987918      821.66322    
   2004400   400.88         30.821894     -21023.882     -20993.06       935.09236      900779.25      2.2101769      817.43065    
   2004450   400.89         31.176187     -21020.36      -20989.183      945.84109      929653.26      2.2250213      811.97709    
   2004500   400.9          32.107081     -21018.866     -20986.759      974.0831       957009.91      2.2337831      808.79221    
   2004550   400.91         29.99879      -21017.492     -20987.493      910.12056      955613.92      2.2294659      810.35837    
   2004600   400.92         28.043443     -21017.711     -20989.668      850.79809      899003.82      2.2159746      815.29199    
   2004650   400.93         30.681385     -21020.35      -20989.669      930.82952      876964.42      2.2073208      818.48833    
   2004700   400.94         31.82289      -21020.05      -20988.228      965.46113      875707.23      2.2073594      818.47403    
   2004750   400.95         34.310404     -21021.148     -20986.837      1040.9288      876432.77      2.2134533      816.22066    
   2004800   400.96         32.596768     -21019.009     -20986.412      988.93949      895529.33      2.2223131      812.96659    
   2004850   400.97         30.405136     -21018.276     -20987.871      922.44849      907163.01      2.22604        811.60551    
   2004900   400.98         27.259346     -21017.346     -20990.086      827.00971      918396.12      2.2211991      813.37434    
   2004950   400.99         29.623844     -21021.784     -20992.16       898.74522      889527.91      2.2114445      816.96211    
   2005000   401            30.265193     -21023.198     -20992.933      918.20283      888641.69      2.2071805      818.54036    
   2005050   401.01         27.310651     -21019.229     -20991.918      828.56625      891622.97      2.2122375      816.66925    
   2005100   401.02         30.033645     -21019.077     -20989.043      911.17801      914268.19      2.2223263      812.96179    
   2005150   401.03         31.13487      -21017.736     -20986.601      944.58759      931033.93      2.2272046      811.18111    
   2005200   401.04         31.563919     -21018.016     -20986.453      957.60433      892431.79      2.2231279      812.66864    
   2005250   401.05         29.421045     -21016.986     -20987.565      892.5926       870179.79      2.2167494      815.00703    
   2005300   401.06         30.167921     -21018.97      -20988.802      915.25174      867663.95      2.2145208      815.82722    
   2005350   401.07         29.280346     -21019.72      -20990.439      888.32397      874845.85      2.2167178      815.01866    
   2005400   401.08         27.496502     -21018.828     -20991.331      834.20469      900989.95      2.2201064      813.77468    
   2005450   401.09         30.412903     -21021.817     -20991.404      922.68416      917149.21      2.2224098      812.93124    
   2005500   401.1          29.661697     -21021.368     -20991.706      899.89363      907011.2       2.2230346      812.70274    
   2005550   401.11         28.298147     -21019.82      -20991.522      858.52546      926364.32      2.2256791      811.73712    
   2005600   401.12         29.594442     -21021.526     -20991.932      897.85321      929882.7       2.2259103      811.65282    
   2005650   401.13         28.1562       -21021.905     -20993.749      854.21898      910400.8       2.2214902      813.26774    
   2005700   401.14         29.135303     -21024.77      -20995.635      883.92357      874959.5       2.2168086      814.98525    
   2005750   401.15         25.623826     -21021.439     -20995.816      777.39036      873046.24      2.2196412      813.94524    
   2005800   401.16         29.468047     -21023.341     -20993.873      894.01857      886419.43      2.2252605      811.88983    
   2005850   401.17         29.315348     -21020.698     -20991.382      889.3859       905980.59      2.2290076      810.52496    
   2005900   401.18         29.308212     -21018.903     -20989.595      889.16939      909154.68      2.2293127      810.41405    
   2005950   401.19         30.433464     -21020.144     -20989.711      923.30794      891784.54      2.2233838      812.57511    
   2006000   401.2          30.135669     -21020.91      -20990.774      914.27325      877149.46      2.2160868      815.2507     
   2006050   401.21         29.122924     -21020.537     -20991.414      883.54802      888516.74      2.2128487      816.4437     
   2006100   401.22         30.109728     -21021.442     -20991.333      913.48626      893391.22      2.2131444      816.33459    
   2006150   401.23         28.441952     -21018.697     -20990.255      862.88831      896435.85      2.2181952      814.47581    
   2006200   401.24         30.855294     -21019.223     -20988.368      936.10566      903911.64      2.2232861      812.61083    
   2006250   401.25         29.429468     -21016.537     -20987.107      892.84814      904124.97      2.221777       813.16276    
   2006300   401.26         33.884569     -21020.336     -20986.451      1028.0095      898248.68      2.216099       815.24624    
   2006350   401.27         33.114732     -21019.604     -20986.49       1004.6538      901642.13      2.2148376      815.71051    
   2006400   401.28         29.553095     -21016.198     -20986.645      896.59881      894202.86      2.2200453      813.79706    
   2006450   401.29         29.563126     -21016.016     -20986.453      896.90312      924184.49      2.2280919      810.85807    
   2006500   401.3          32.660891     -21019.905     -20987.245      990.88489      918449.63      2.2298498      810.21885    
   2006550   401.31         28.668482     -21017.862     -20989.194      869.7609       918229.37      2.2260181      811.61349    
   2006600   401.32         28.976112     -21020.154     -20991.178      879.09395      899817.11      2.2179309      814.57286    
   2006650   401.33         28.825736     -21021.02      -20992.194      874.53177      890997.78      2.2129298      816.41375    
   2006700   401.34         29.109778     -21020.721     -20991.611      883.14918      911008.75      2.2154407      815.48848    
   2006750   401.35         29.581408     -21020.076     -20990.494      897.45777      917868.88      2.2204243      813.65814    
   2006800   401.36         31.11117      -21020.566     -20989.455      943.86858      920248.08      2.2244474      812.18659    
   2006850   401.37         27.532214     -21017.001     -20989.469      835.28816      900099.66      2.2245382      812.15345    
   2006900   401.38         28.479581     -21017.628     -20989.148      864.02991      922836.17      2.2249228      812.01306    
   2006950   401.39         31.175443     -21020.261     -20989.085      945.81853      896005.49      2.2221776      813.01619    
   2007000   401.4          28.663411     -21017.635     -20988.972      869.60705      908123.43      2.2203686      813.67856    
   2007050   401.41         29.174045     -21017.795     -20988.621      885.09895      891172.95      2.2183324      814.42544    
   2007100   401.42         30.945413     -21018.396     -20987.451      938.83973      908516.37      2.2201161      813.77112    
   2007150   401.43         30.641335     -21017.884     -20987.243      929.61445      896826.1       2.2201699      813.75139    
   2007200   401.44         30.331231     -21018.302     -20987.971      920.20634      888865.16      2.2192688      814.08179    
   2007250   401.45         29.897495     -21019.136     -20989.238      907.0474       878133.03      2.2186565      814.30649    
   2007300   401.46         29.627534     -21020.206     -20990.578      898.85718      887613.46      2.2194084      814.03061    
   2007350   401.47         28.458006     -21020.236     -20991.778      863.37536      886711.1       2.2198489      813.86908    
   2007400   401.48         27.636345     -21019.382     -20991.745      838.44734      893140.31      2.2228799      812.75933    
   2007450   401.49         29.652697     -21019.853     -20990.2        899.62057      909663.53      2.2285774      810.68146    
   2007500   401.5          30.376917     -21019.107     -20988.73       921.59239      926315.79      2.2305101      809.979      
   2007550   401.51         31.788405     -21020.069     -20988.281      964.4149       922084.14      2.2233629      812.58277    
   2007600   401.52         31.979264     -21020.284     -20988.305      970.20531      872019.55      2.2127501      816.48006    
   2007650   401.53         31.658983     -21019.706     -20988.047      960.48843      864832.05      2.2102546      817.40191    
   2007700   401.54         29.884716     -21016.667     -20986.782      906.6597       890223.95      2.2168554      814.96806    
   2007750   401.55         32.081525     -21017.49      -20985.409      973.30776      906658.83      2.2248091      812.05456    
   2007800   401.56         30.46845      -21015.866     -20985.397      924.36935      917897.14      2.230449       810.0012     
   2007850   401.57         29.853825     -21016.912     -20987.058      905.72252      891477.33      2.229138       810.47756    
   2007900   401.58         29.737509     -21019.399     -20989.661      902.19366      882827.18      2.2226397      812.84714    
   2007950   401.59         29.573646     -21021.816     -20992.243      897.22229      867940.57      2.2145612      815.81235    
   2008000   401.6          30.244037     -21023.748     -20993.504      917.561        869260.01      2.2116695      816.87901    
   2008050   401.61         28.823269     -21022.268     -20993.445      874.45691      876087.11      2.2144121      815.86727    
   2008100   401.62         27.525001     -21019.704     -20992.179      835.06931      866690.08      2.2195499      813.97869    
   2008150   401.63         29.284723     -21018.862     -20989.577      888.45678      906260.11      2.2263074      811.50803    
   2008200   401.64         29.536575     -21016.763     -20987.226      896.09761      883857.6       2.2256129      811.76128    
   2008250   401.65         30.464064     -21016.306     -20985.841      924.2363       909923.52      2.2230993      812.67911    
   2008300   401.66         31.826247     -21018.386     -20986.559      965.563        898812.53      2.2178068      814.61846    
   2008350   401.67         30.748838     -21018.51      -20987.761      932.87593      887799.46      2.2146683      815.77288    
   2008400   401.68         30.054315     -21018.081     -20988.026      911.80511      898781.86      2.2168589      814.96677    
   2008450   401.69         31.64343      -21020.064     -20988.421      960.01658      902121.36      2.2191061      814.1415     
   2008500   401.7          31.242919     -21021.278     -20990.035      947.86565      898750.82      2.2194309      814.02236    
   2008550   401.71         28.676185     -21020.19      -20991.514      869.99461      915934.96      2.2192497      814.0888     
   2008600   401.72         28.813663     -21021.432     -20992.619      874.16547      863872.35      2.2154253      815.49416    
   2008650   401.73         28.938398     -21021.308     -20992.369      877.94976      864456.83      2.2162423      815.19351    
   2008700   401.74         28.519935     -21019.043     -20990.523      865.2542       906024.58      2.2226457      812.84497    
   2008750   401.75         30.782654     -21019.21      -20988.427      933.90187      906733.22      2.2270183      811.24898    
   2008800   401.76         31.048285     -21018.629     -20987.581      941.96074      922160.38      2.2280371      810.87805    
   2008850   401.77         29.501065     -21017.99      -20988.489      895.02029      901437.2       2.2227622      812.80236    
   2008900   401.78         28.803212     -21018.538     -20989.734      873.84842      888425.42      2.2167847      814.99406    
   2008950   401.79         30.840037     -21021.328     -20990.487      935.64278      890054.13      2.2138305      816.0816     
   2009000   401.8          31.270414     -21022.17      -20990.899      948.6998       878359.31      2.2147395      815.74667    
   2009050   401.81         30.048836     -21020.272     -20990.223      911.63888      874843.64      2.2198658      813.86287    
   2009100   401.82         28.863965     -21017.754     -20988.89       875.69158      906432.85      2.2281324      810.84334    
   2009150   401.83         29.066735     -21017.955     -20988.888      881.84333      909197.81      2.2290945      810.49338    
   2009200   401.84         29.51898      -21019.972     -20990.453      895.5638       885170.54      2.2227733      812.7983     
   2009250   401.85         28.833709     -21021.64      -20992.806      874.77366      891939.76      2.2158529      815.33678    
   2009300   401.86         28.891047     -21024.073     -20995.182      876.5132       874499.93      2.2117712      816.84141    
   2009350   401.87         26.593241     -21022.592     -20995.999      806.80104      906797.32      2.2169946      814.9169     
   2009400   401.88         28.17654      -21023.596     -20995.419      854.83607      921831.01      2.2235726      812.50611    
   2009450   401.89         26.307067     -21021.077     -20994.77       798.11893      918275.72      2.2252266      811.90219    
   2009500   401.9          27.767608     -21021.342     -20993.575      842.42968      883363.97      2.221924       813.10896    
   2009550   401.91         29.073946     -21021.259     -20992.185      882.06209      890505.55      2.2193459      814.05352    
   2009600   401.92         29.75996      -21021.607     -20991.847      902.87479      882910.37      2.2174992      814.73146    
   2009650   401.93         30.407782     -21021.751     -20991.343      922.52877      872741.31      2.2190652      814.1565     
   2009700   401.94         28.41778      -21018.396     -20989.978      862.15496      904212.73      2.2247658      812.07037    
   2009750   401.95         30.668548     -21019.378     -20988.709      930.44004      921474.13      2.2271745      811.19211    
   2009800   401.96         31.193434     -21020.223     -20989.03       946.36435      902953.4       2.2222072      813.00534    
   2009850   401.97         28.628937     -21019.054     -20990.425      868.56115      872616.74      2.2144103      815.86793    
   2009900   401.98         29.65838      -21020.486     -20990.828      899.79298      873989.03      2.2090008      817.86588    
   2009950   401.99         30.889747     -21020.655     -20989.765      937.15091      863456.79      2.2076054      818.38281    
   2010000   402            28.151257     -21015.871     -20987.719      854.06902      868191.73      2.213855       816.07257    
   2010050   402.01         32.463692     -21016.771     -20984.307      984.90215      923444.1       2.2247087      812.09119    
   2010100   402.02         32.211926     -21016.115     -20983.903      977.26395      961070.39      2.2287284      810.6265     
   2010150   402.03         30.015648     -21018.522     -20988.506      910.63198      943403.84      2.2185526      814.34461    
   2010200   402.04         28.438018     -21022.258     -20993.82       862.76896      911682.84      2.2028132      820.16321    
   2010250   402.05         30.374206     -21026.607     -20996.233      921.51014      862326.79      2.1931314      823.78391    
   2010300   402.06         28.715941     -21023.354     -20994.638      871.20075      882005.81      2.2015364      820.63885    
   2010350   402.07         30.301482     -21020.559     -20990.258      919.30378      936565.33      2.2223245      812.96245    
   2010400   402.08         31.039682     -21017.863     -20986.824      941.69972      942944.99      2.2374144      807.47952    
   2010450   402.09         29.349641     -21015.542     -20986.193      890.42628      940103.38      2.2391606      806.84983    
   2010500   402.1          29.758139     -21017.79      -20988.032      902.81954      922931.87      2.2271         811.21923    
   2010550   402.11         28.6134       -21019.243     -20990.63       868.08978      874278.59      2.2076721      818.3581     
   2010600   402.12         31.926319     -21023.02      -20991.094      968.59904      854739.21      2.1949485      823.10192    
   2010650   402.13         32.210472     -21021.432     -20989.221      977.21982      880608.22      2.1981809      821.89157    
   2010700   402.14         33.69847      -21019.605     -20985.907      1022.3636      897350.08      2.2157604      815.37082    
   2010750   402.15         29.77968      -21012.516     -20982.737      903.47305      949296.04      2.2378306      807.32937    
   2010800   402.16         31.096396     -21013.607     -20982.511      943.42034      951042.11      2.2451406      804.70076    
   2010850   402.17         29.198818     -21015.894     -20986.695      885.85054      919970.12      2.2299278      810.1905     
   2010900   402.18         29.972058     -21022.251     -20992.279      909.30955      862561.04      2.2044855      819.54103    
   2010950   402.19         28.952979     -21023.856     -20994.903      878.39212      860431.56      2.1937158      823.56446    
   2011000   402.2          29.366287     -21022.878     -20993.511      890.93129      866659.75      2.2039484      819.74077    
   2011050   402.21         27.971078     -21017.179     -20989.208      848.60265      920369.27      2.2301591      810.1065     
   2011100   402.22         29.33603      -21015.473     -20986.137      890.01335      977157.77      2.2490045      803.31826    
   2011150   402.23         29.606085     -21018.628     -20989.022      898.20645      953654.02      2.2418633      805.87714    
   2011200   402.24         28.845741     -21025.185     -20996.339      875.13868      900766.54      2.2166487      815.04406    
   2011250   402.25         27.439647     -21029.306     -21001.866      832.47978      870573.08      2.195721       822.81233    
   2011300   402.26         29.359959     -21031.182     -21001.822      890.73934      848147.49      2.1958476      822.76491    
   2011350   402.27         27.419057     -21024.08      -20996.661      831.85514      896390.04      2.2197187      813.9168     
   2011400   402.28         28.775948     -21019.11      -20990.334      873.02127      949274.58      2.2462568      804.30087    
   2011450   402.29         28.449526     -21015.946     -20987.496      863.1181       959154.08      2.2547421      801.27406    
   2011500   402.3          29.501016     -21018.281     -20988.78       895.01879      922417.09      2.2419366      805.85076    
   2011550   402.31         28.107341     -21020.755     -20992.648      852.73667      907380.6       2.2177932      814.62347    
   2011600   402.32         31.258619     -21027.208     -20995.949      948.34197      852463.83      2.1956489      822.83937    
   2011650   402.33         29.867107     -21025.342     -20995.475      906.12548      874929.33      2.19659        822.48681    
   2011700   402.34         30.21157      -21021.924     -20991.713      916.57598      868627.19      2.2149931      815.65325    
   2011750   402.35         31.765997     -21019.153     -20987.387      963.73507      926458.02      2.2384854      807.09321    
   2011800   402.36         32.234584     -21020.161     -20987.926      977.95134      941276.74      2.2451463      804.69873    
   2011850   402.37         28.228103     -21021.167     -20992.938      856.40043      930365.12      2.2320938      809.40432    
   2011900   402.38         27.395283     -21025.394     -20997.999      831.13385      876537.42      2.2095268      817.67117    
   2011950   402.39         27.920397     -21027.071     -20999.15       847.06506      878481.42      2.2009953      820.84063    
   2012000   402.4          28.513861     -21025.047     -20996.533      865.06991      885524.92      2.2085505      818.0326     
   2012050   402.41         29.584676     -21021.827     -20992.243      897.55693      912333.03      2.2236924      812.46234    
   2012100   402.42         29.183971     -21018.602     -20989.418      885.4001       924401.63      2.2318761      809.48326    
   2012150   402.43         28.764775     -21018.25      -20989.485      872.68229      903224.64      2.2285525      810.69052    
   2012200   402.44         30.252545     -21021.153     -20990.9        917.8191       890328.87      2.2194383      814.01962    
   2012250   402.45         29.112436     -21021.35      -20992.238      883.22984      879913.24      2.2106365      817.2607     
   2012300   402.46         32.115868     -21023.845     -20991.729      974.34966      868791.4       2.2087831      817.94649    
   2012350   402.47         31.604804     -21020.763     -20989.158      958.84473      935413.29      2.2158711      815.33008    
   2012400   402.48         31.801702     -21018.807     -20987.005      964.81833      921586.64      2.2193189      814.06343    
   2012450   402.49         32.685821     -21018.171     -20985.485      991.64124      920020.98      2.2207226      813.54888    
   2012500   402.5          31.52462      -21017.487     -20985.962      956.41204      892663.93      2.2166891      815.02921    
   2012550   402.51         29.98881      -21017.994     -20988.005      909.81776      884764.66      2.2127072      816.4959     
   2012600   402.52         29.31262      -21019.457     -20990.145      889.30312      865395.47      2.2127972      816.46267    
   2012650   402.53         28.222332     -21019.059     -20990.836      856.22534      855273.22      2.2179617      814.56155    
   2012700   402.54         29.350162     -21019.223     -20989.873      890.44209      888511.05      2.2274492      811.09206    
   2012750   402.55         28.329446     -21017.777     -20989.447      859.47502      903858.89      2.2336016      808.85792    
   2012800   402.56         26.597639     -21016.885     -20990.287      806.93446      893649.97      2.2325725      809.23075    
   2012850   402.57         27.707335     -21019.109     -20991.401      840.60105      899594.61      2.2283075      810.77964    
   2012900   402.58         28.479875     -21021.406     -20992.927      864.03884      889039.22      2.220977       813.45569    
   2012950   402.59         30.054632     -21023.795     -20993.74       911.81472      881875.39      2.2134459      816.22342    
   2013000   402.6          30.082595     -21022.834     -20992.752      912.66307      868376.39      2.2095686      817.65571    
   2013050   402.61         30.018859     -21020.229     -20990.21       910.7294       878927.18      2.2121694      816.6944     
   2013100   402.62         29.522458     -21017.217     -20987.695      895.66931      897610.35      2.2199849      813.8192     
   2013150   402.63         32.980902     -21019.064     -20986.083      1000.5936      895331.04      2.227081       811.22613    
   2013200   402.64         30.763352     -21018.085     -20987.321      933.31628      891687.54      2.2280921      810.85801    
   2013250   402.65         29.87522      -21019.232     -20989.357      906.3716       905492.09      2.2253769      811.84735    
   2013300   402.66         29.770036     -21020.662     -20990.892      903.18048      911474.15      2.2214935      813.26655    
   2013350   402.67         31.139865     -21023.416     -20992.276      944.73914      900071.61      2.2163304      815.1611     
   2013400   402.68         31.527447     -21024.849     -20993.322      956.49781      903603.13      2.2142303      815.93426    
   2013450   402.69         28.405427     -21022.492     -20994.086      861.78019      883582.06      2.2153089      815.53699    
   2013500   402.7          29.445249     -21022.635     -20993.189      893.3269       897229.2       2.2203504      813.68525    
   2013550   402.71         28.502923     -21020.045     -20991.542      864.73807      898901.03      2.2254267      811.8292     
   2013600   402.72         27.119138     -21017.055     -20989.935      822.75602      894291.04      2.2263861      811.47936    
   2013650   402.73         32.504258     -21021.096     -20988.592      986.13286      881912.56      2.221496       813.26563    
   2013700   402.74         32.101216     -21021.005     -20988.904      973.90516      863255.89      2.216705       815.02336    
   2013750   402.75         28.664162     -21017.788     -20989.124      869.62985      886265.32      2.2173965      814.76919    
   2013800   402.76         32.229606     -21021.362     -20989.132      977.80034      901033.19      2.2190233      814.17186    
   2013850   402.77         27.988424     -21017.651     -20989.663      849.12891      921801.22      2.2207064      813.55479    
   2013900   402.78         29.436564     -21019.712     -20990.275      893.0634       914253.59      2.2188662      814.22952    
   2013950   402.79         30.193361     -21021.362     -20991.168      916.02356      886722.83      2.214529       815.82422    
   2014000   402.8          31.035621     -21022.073     -20991.038      941.57651      872624.02      2.2146639      815.77449    
   2014050   402.81         31.263441     -21021.041     -20989.777      948.48826      892651.72      2.2203688      813.67848    
   2014100   402.82         29.561895     -21018.498     -20988.936      896.86577      912593.55      2.2267879      811.33294    
   2014150   402.83         28.080794     -21017.936     -20989.855      851.93129      920197.76      2.227225       811.1737     
   2014200   402.84         28.760459     -21021.034     -20992.273      872.55135      911148.94      2.2195738      813.96993    
   2014250   402.85         28.770461     -21023.81      -20995.039      872.85479      891099.05      2.2080539      818.21659    
   2014300   402.86         29.021843     -21024.925     -20995.904      880.48137      875852.63      2.2044744      819.54516    
   2014350   402.87         30.431397     -21023.857     -20993.425      923.24521      895229.78      2.2152029      815.57599    
   2014400   402.88         29.292678     -21018.281     -20988.988      888.69813      941398.22      2.2336171      808.85229    
   2014450   402.89         29.235081     -21014.633     -20985.398      886.95071      967777.1       2.2454448      804.59176    
   2014500   402.9          30.112475     -21015.325     -20985.212      913.56958      946395.96      2.2386396      807.03761    
   2014550   402.91         31.227537     -21020.188     -20988.96       947.39898      885543.28      2.2140166      816.01302    
   2014600   402.92         31.357965     -21024.514     -20993.156      951.35597      854157.66      2.1898421      825.0213     
   2014650   402.93         30.679914     -21024.856     -20994.176      930.78488      837449.15      2.185117       826.80531    
   2014700   402.94         32.554181     -21022.548     -20989.994      987.64745      890475.98      2.2085786      818.02221    
   2014750   402.95         29.798614     -21014.727     -20984.929      904.04749      950162.48      2.2411583      806.13062    
   2014800   402.96         25.774291     -21009.648     -20983.874      781.95527      993079.87      2.2553193      801.069      
   2014850   402.97         30.244439     -21018.115     -20987.871      917.57318      948273.69      2.2379552      807.28441    
   2014900   402.98         31.958784     -21027.126     -20995.167      969.58396      872934.08      2.2038281      819.78551    
   2014950   402.99         29.107983     -21029.22      -21000.112      883.09473      825651.01      2.1813481      828.23386    
   2015000   403            29.263606     -21027.659     -20998.395      887.81612      832916.05      2.1896955      825.07651    
   2015050   403.01         29.163069     -21020.274     -20991.111      884.76596      910705.88      2.2218868      813.12258    
   2015100   403.02         29.310757     -21013.325     -20984.014      889.2466       946711.62      2.2502888      802.85979    
   2015150   403.03         30.802515     -21012.714     -20981.911      934.50443      965819.15      2.2539555      801.55369    
   2015200   403.04         30.398429     -21017.01      -20986.611      922.24502      925381.62      2.2274666      811.08572    
   2015250   403.05         31.174635     -21024.261     -20993.086      945.794        844099.63      2.1933359      823.7071     
   2015300   403.06         32.545403     -21028.527     -20995.982      987.38116      819791.05      2.1821186      827.94141    
   2015350   403.07         29.524021     -21023.823     -20994.299      895.71674      881825.99      2.2040458      819.70454    
   2015400   403.08         27.857522     -21016.958     -20989.101      845.15751      962509.04      2.2372505      807.53868    
   2015450   403.09         29.744313     -21016.604     -20986.859      902.40008      969532.71      2.2494746      803.15037    
   2015500   403.1          27.882294     -21018.327     -20990.445      845.90906      937104.6       2.2328266      809.13868    
   2015550   403.11         27.755374     -21023.617     -20995.862      842.05849      878365.67      2.2043382      819.5958     
   2015600   403.12         28.504979     -21025.988     -20997.483      864.80046      851879.7       2.1899361      824.98586    
   2015650   403.13         30.988401     -21024.518     -20993.529      940.14395      878488.65      2.2015395      820.63772    
   2015700   403.14         31.122191     -21018.568     -20987.446      944.20294      928657.21      2.2271777      811.19094    
   2015750   403.15         31.968931     -21016.003     -20984.034      969.89182      950300.04      2.2440085      805.10673    
   2015800   403.16         28.751635     -21014.405     -20985.653      872.28365      964271.68      2.2397021      806.65474    
   2015850   403.17         29.165609     -21019.949     -20990.783      884.84303      909666.31      2.2172862      814.80972    
   2015900   403.18         28.774004     -21023.791     -20995.017      872.96227      857982.24      2.1980794      821.9295     
   2015950   403.19         28.324898     -21023.602     -20995.277      859.33705      861168.58      2.1984124      821.80504    
   2016000   403.2          27.406508     -21019.833     -20992.427      831.47441      883591.88      2.2135626      816.18036    
   2016050   403.21         28.45426      -21017.25      -20988.795      863.26171      909654.2       2.2295708      810.32025    
   2016100   403.22         29.84226      -21016.832     -20986.99       905.37164      926882.61      2.2338439      808.77019    
   2016150   403.23         31.009732     -21018.676     -20987.666      940.79108      891963.43      2.2230143      812.71018    
   2016200   403.24         34.084838     -21021.495     -20987.41       1034.0854      901270.33      2.2115473      816.92413    
   2016250   403.25         32.51347      -21019.528     -20987.014      986.41234      908592.32      2.2058134      819.04767    
   2016300   403.26         35.781995     -21022.736     -20986.954      1085.5748      877137.23      2.2055222      819.15582    
   2016350   403.27         33.174174     -21019.636     -20986.462      1006.4572      909879.33      2.215319       815.53329    
   2016400   403.28         30.955395     -21016.872     -20985.916      939.14258      937382.25      2.2242948      812.24232    
   2016450   403.29         28.961022     -21015.889     -20986.928      878.63615      926757.27      2.2248744      812.03071    
   2016500   403.3          29.080576     -21018.79      -20989.709      882.26325      893841.13      2.2169429      814.9359     
   2016550   403.31         30.46753      -21022.567     -20992.099      924.34145      878891.83      2.2081975      818.16339    
   2016600   403.32         29.670176     -21022.328     -20992.658      900.15085      876743.4       2.2071856      818.53847    
   2016650   403.33         27.960042     -21019.166     -20991.206      848.26785      878635.77      2.2150589      815.62902    
   2016700   403.34         29.819847     -21018.277     -20988.457      904.69168      899594.13      2.2268697      811.30313    
   2016750   403.35         31.440776     -21018.405     -20986.964      953.86834      925717.08      2.2334659      808.90707    
   2016800   403.36         29.621738     -21018.079     -20988.458      898.68133      909001.46      2.2291376      810.47773    
   2016850   403.37         29.242204     -21020.557     -20991.315      887.16682      895173.57      2.2184148      814.39519    
   2016900   403.38         28.364042     -21022.041     -20993.677      860.52461      867717.75      2.2087401      817.96241    
   2016950   403.39         29.422651     -21022.828     -20993.406      892.6413       882181.86      2.2105041      817.30964    
   2017000   403.4          28.09356      -21019.592     -20991.498      852.31859      913937.84      2.2204333      813.65486    
   2017050   403.41         31.427536     -21020.791     -20989.363      953.46667      932234.96      2.2291348      810.47872    
   2017100   403.42         30.07044      -21019.134     -20989.064      912.29429      911406.91      2.2289922      810.5306     
   2017150   403.43         30.105772     -21019.715     -20989.609      913.36622      907883.17      2.2247556      812.07406    
   2017200   403.44         30.788211     -21020.859     -20990.071      934.07046      909632.07      2.2192965      814.07163    
   2017250   403.45         29.536231     -21019.682     -20990.146      896.08716      888657.75      2.2137941      816.09501    
   2017300   403.46         33.35536      -21022.075     -20988.72       1011.9541      881023.14      2.2136714      816.14027    
   2017350   403.47         31.911435     -21018.854     -20986.943      968.14747      911880.06      2.2193174      814.06399    
   2017400   403.48         33.905849     -21020.304     -20986.399      1028.6552      914398.14      2.2211075      813.4079     
   2017450   403.49         32.361976     -21020.837     -20988.475      981.81625      905720.35      2.2169591      814.92993    
   2017500   403.5          31.61567      -21023.953     -20992.338      959.17438      887168.58      2.211486       816.94677    
   2017550   403.51         28.231103     -21022.456     -20994.225      856.49144      878039.99      2.2108298      817.18924    
   2017600   403.52         27.80742      -21020.889     -20993.082      843.63751      887708.53      2.2183305      814.42615    
   2017650   403.53         29.116914     -21019.482     -20990.365      883.36568      903810.42      2.2289419      810.54889    
   2017700   403.54         31.602081     -21019.991     -20988.388      958.76211      903265.05      2.2334036      808.92962    
   2017750   403.55         28.840608     -21018.1       -20989.259      874.98296      877468.28      2.2263686      811.48574    
   2017800   403.56         29.575943     -21020.469     -20990.893      897.29196      845711.01      2.214085       815.98779    
   2017850   403.57         31.002285     -21021.709     -20990.707      940.56515      857636.14      2.2098116      817.56579    
   2017900   403.58         31.612299     -21021.012     -20989.399      959.07211      883526.49      2.2144831      815.8411     
   2017950   403.59         29.391937     -21017.977     -20988.585      891.7095       907805.18      2.222985       812.7209     
   2018000   403.6          28.924638     -21018.255     -20989.331      877.5323       935412.44      2.230465       809.99538    
   2018050   403.61         30.519056     -21021.69      -20991.17       925.90467      902543.97      2.229052       810.50885    
   2018100   403.62         28.405956     -21021.253     -20992.847      861.79624      904150.45      2.223961       812.36423    
   2018150   403.63         27.481879     -21021.507     -20994.025      833.76105      873112.4       2.2174125      814.76332    
   2018200   403.64         29.754963     -21022.783     -20993.028      902.72318      882997.44      2.2170673      814.89016    
   2018250   403.65         28.898523     -21019.949     -20991.05       876.74002      889917.47      2.221598       813.22829    
   2018300   403.66         28.049193     -21017.285     -20989.236      850.97254      910541.6       2.2266712      811.37547    
   2018350   403.67         29.735944     -21018.293     -20988.557      902.14618      905450.93      2.2263722      811.48441    
   2018400   403.68         33.520589     -21022.369     -20988.849      1016.9669      902228.84      2.2223337      812.95909    
   2018450   403.69         30.240261     -21020.211     -20989.971      917.44643      900448.83      2.219454       814.01388    
   2018500   403.7          28.972104     -21019.486     -20990.514      878.97235      881372.44      2.2171189      814.87119    
   2018550   403.71         30.101669     -21020.349     -20990.248      913.24176      893039.12      2.2180876      814.51531    
   2018600   403.72         29.981608     -21020.048     -20990.066      909.59928      900989.8       2.220095       813.77885    
   2018650   403.73         30.027501     -21020.557     -20990.529      910.99159      901304.46      2.2193822      814.0402     
   2018700   403.74         29.921018     -21022.033     -20992.112      907.76104      894937.52      2.2152722      815.55049    
   2018750   403.75         28.523796     -21022.854     -20994.33       865.37134      888012.93      2.2108037      817.19889    
   2018800   403.76         26.601704     -21022.733     -20996.131      807.05781      895778.31      2.2093627      817.73189    
   2018850   403.77         25.839771     -21022.041     -20996.201      783.94184      903842.68      2.2128431      816.44574    
   2018900   403.78         29.364704     -21023.477     -20994.112      890.88327      898032.74      2.2199492      813.83229    
   2018950   403.79         29.308332     -21019.349     -20990.041      889.17304      922749.67      2.2291621      810.46882    
   2019000   403.8          30.356675     -21017.308     -20986.951      920.97827      923149.13      2.2326377      809.20715    
   2019050   403.81         28.178266     -21015.495     -20987.317      854.88844      919969.29      2.226546       811.42107    
   2019100   403.82         30.590202     -21020.084     -20989.494      928.06316      899790.84      2.2126163      816.52946    
   2019150   403.83         30.051034     -21022.108     -20992.057      911.70556      851036.28      2.1990737      821.5579     
   2019200   403.84         32.514179     -21024.725     -20992.211      986.43385      855376.78      2.1999421      821.2336     
   2019250   403.85         31.184497     -21021.203     -20990.018      946.0932       876723.19      2.2152176      815.57058    
   2019300   403.86         30.287197     -21017.306     -20987.019      918.87041      933373.28      2.2351314      808.30432    
   2019350   403.87         29.064982     -21016.079     -20987.014      881.79014      946973.85      2.2430532      805.44962    
   2019400   403.88         29.000935     -21020.043     -20991.042      879.84706      921293.45      2.2312845      809.69787    
   2019450   403.89         28.915298     -21025.25      -20996.335      877.24893      874449.47      2.2094398      817.70337    
   2019500   403.9          28.326181     -21027.353     -20999.026      859.37599      851237.8       2.196665       822.45874    
   2019550   403.91         28.386392     -21025.379     -20996.993      861.20268      864973.62      2.2043816      819.57969    
   2019600   403.92         29.526129     -21020.909     -20991.383      895.78067      927310.37      2.2283742      810.75538    
   2019650   403.93         31.058115     -21018.293     -20987.235      942.25896      948423.71      2.2449255      804.77786    
   2019700   403.94         29.172914     -21016.744     -20987.571      885.06463      945674.78      2.2429931      805.47121    
   2019750   403.95         27.703379     -21019.063     -20991.359      840.48106      923939.87      2.2246203      812.12345    
   2019800   403.96         28.999219     -21024.329     -20995.33       879.79499      868581.74      2.2014394      820.67501    
   2019850   403.97         30.447559     -21026.193     -20995.745      923.73555      853497.83      2.1915232      824.38843    
   2019900   403.98         31.43066      -21023.621     -20992.191      953.56145      888866.82      2.2015692      820.62664    
   2019950   403.99         31.789389     -21019.253     -20987.464      964.44476      931898.48      2.2208516      813.5016     
   2020000   404            31.407305     -21016.086     -20984.679      952.85289      964734.46      2.2346691      808.47151    
   2020050   404.01         31.86203      -21017.345     -20985.483      966.64858      948498.88      2.2325954      809.22245    
   2020100   404.02         30.359804     -21019.68      -20989.32       921.0732       921146.1       2.2187043      814.28895    
   2020150   404.03         29.771022     -21022.874     -20993.103      903.2104       896221.04      2.2043618      819.58703    
   2020200   404.04         30.974971     -21025.891     -20994.916      939.73647      860137.18      2.2003654      821.0756     
   2020250   404.05         25.435847     -21018.891     -20993.455      771.68735      896253.78      2.2128006      816.46144    
   2020300   404.06         26.548526     -21016.228     -20989.679      805.44446      906445.69      2.2299072      810.19801    
   2020350   404.07         28.028291     -21014.495     -20986.467      850.3384       930102.6       2.2382112      807.19209    
   2020400   404.08         31.9734       -21018.066     -20986.093      970.02741      901825.99      2.2293327      810.40679    
   2020450   404.09         31.132677     -21020.081     -20988.948      944.52107      863141.36      2.2125761      816.54429    
   2020500   404.1          32.827764     -21023.742     -20990.914      995.94758      852341.37      2.2036641      819.84654    
   2020550   404.11         29.473228     -21019.51      -20990.037      894.17576      875277.44      2.2115991      816.90501    
   2020600   404.12         30.025373     -21017.461     -20987.435      910.92705      901748.35      2.227096       811.22067    
   2020650   404.13         30.056784     -21016.67      -20986.613      911.88001      919637.09      2.2356214      808.12715    
   2020700   404.14         29.246423     -21018.024     -20988.777      887.2948       920686.93      2.2312701      809.7031     
   2020750   404.15         27.804181     -21020.066     -20992.262      843.53924      895478.27      2.2182847      814.44294    
   2020800   404.16         28.264995     -21022.987     -20994.722      857.51968      884887.87      2.207276       818.50496    
   2020850   404.17         28.967309     -21023.498     -20994.53       878.82689      866251.3       2.2059673      818.99055    
   2020900   404.18         30.100228     -21020.797     -20990.697      913.19802      895626.48      2.2177809      814.62798    
   2020950   404.19         32.579695     -21018.075     -20985.496      988.42153      937961.95      2.2307097      809.90653    
   2021000   404.2          32.627887     -21016.283     -20983.655      989.88361      928253.63      2.2308874      809.84202    
   2021050   404.21         31.308505     -21017.331     -20986.023      949.85544      914150.03      2.2178963      814.58558    
   2021100   404.22         28.979439     -21019.032     -20990.052      879.19488      877379.65      2.2000073      821.20927    
   2021150   404.23         31.435993     -21023.516     -20992.08       953.72323      838607.2       2.1916801      824.32938    
   2021200   404.24         29.710124     -21020.741     -20991.031      901.36285      852990.95      2.2021322      820.41683    
   2021250   404.25         30.30156      -21018.241     -20987.939      919.30616      897143.16      2.2250918      811.95137    
   2021300   404.26         28.440164     -21014.376     -20985.936      862.83404      931937.77      2.2411509      806.13328    
   2021350   404.27         28.715892     -21016.268     -20987.552      871.19926      914151.28      2.2352039      808.27809    
   2021400   404.28         30.746579     -21022.699     -20991.953      932.8074       876345.13      2.2135458      816.18656    
   2021450   404.29         27.902262     -21023.708     -20995.806      846.51488      837337.77      2.1940442      823.44117    
   2021500   404.3          29.620894     -21024.747     -20995.126      898.65571      832499.67      2.1935726      823.61821    
   2021550   404.31         31.984425     -21021.63      -20989.646      970.36187      869045.66      2.2131165      816.34488    
   2021600   404.32         30.140795     -21013.027     -20982.886      914.42878      932692.58      2.238284       807.16582    
   2021650   404.33         33.45335      -21013.674     -20980.22       1014.927       955564.22      2.2439309      805.13457    
   2021700   404.34         32.509021     -21015.814     -20983.305      986.27739      947782.28      2.2276534      811.01769    
   2021750   404.35         31.158234     -21021.04      -20989.882      945.29644      896184.81      2.2048578      819.40264    
   2021800   404.36         30.556849     -21025.435     -20994.879      927.05127      850704.99      2.1929154      823.86504    
   2021850   404.37         31.284753     -21025.335     -20994.05       949.13482      864991         2.2039635      819.73515    
   2021900   404.38         29.134941     -21018.551     -20989.416      883.9126       940802.86      2.2307263      809.90049    
   2021950   404.39         31.508423     -21017.89      -20986.381      955.92066      956287.58      2.2473714      803.902      
   2022000   404.4          29.242705     -21017.887     -20988.645      887.18201      914526.99      2.2406802      806.30262    
   2022050   404.41         28.797777     -21022.772     -20993.975      873.68353      880439.37      2.2189884      814.18467    
   2022100   404.42         27.157861     -21025.405     -20998.248      823.9308       825502.79      2.200117       821.1683     
   2022150   404.43         28.643435     -21025.914     -20997.27       869.00101      848625.74      2.204367       819.58512    
   2022200   404.44         27.165051     -21019.648     -20992.483      824.14895      901816.56      2.2249263      812.01178    
   2022250   404.45         27.35741      -21014.571     -20987.213      829.98483      961449.42      2.2410604      806.16585    
   2022300   404.46         32.134807     -21018.204     -20986.069      974.92427      937710.02      2.2357496      808.08082    
   2022350   404.47         31.265384     -21020.568     -20989.303      948.54721      914181.49      2.2176125      814.68984    
   2022400   404.48         30.899296     -21024.049     -20993.149      937.4406       876385.36      2.2003631      821.07644    
   2022450   404.49         31.920053     -21026.564     -20994.644      968.40892      858829.07      2.1973775      822.19207    
   2022500   404.5          30.761542     -21023.466     -20992.704      933.26136      897576.47      2.2122139      816.67795    
   2022550   404.51         30.792863     -21020.235     -20989.443      934.21158      941942.82      2.2325261      809.24759    
   2022600   404.52         29.246988     -21017.892     -20988.645      887.31196      965327.18      2.2410062      806.18534    
   2022650   404.53         29.233472     -21021.273     -20992.04       886.90188      905978.47      2.2281448      810.83885    
   2022700   404.54         27.381411     -21023.877     -20996.495      830.71298      855272.75      2.208022       818.22841    
   2022750   404.55         27.531671     -21025.677     -20998.145      835.27167      829983.71      2.19793        821.9854     
   2022800   404.56         29.216663     -21024.481     -20995.265      886.39192      838658.16      2.2048245      819.41504    
   2022850   404.57         30.971797     -21020.747     -20989.775      939.6402       886806.56      2.2246592      812.10926    
   2022900   404.58         29.671893     -21015.413     -20985.741      900.20295      949460.48      2.2409925      806.19026    
   2022950   404.59         28.384815     -21014.765     -20986.38       861.15485      940458.75      2.2367491      807.7197     
   2023000   404.6          30.400204     -21020.685     -20990.285      922.29886      912843.74      2.2178977      814.58508    
   2023050   404.61         29.80752      -21024.228     -20994.42       904.3177       876692.29      2.200082       821.18136    
   2023100   404.62         29.928618     -21026.102     -20996.174      907.99164      860410.54      2.1968755      822.37992    
   2023150   404.63         29.242497     -21024.158     -20994.915      887.17569      910279.51      2.2113406      817.00048    
   2023200   404.64         29.127885     -21021.488     -20992.36       883.69853      939927.95      2.2304298      810.00817    
   2023250   404.65         27.689286     -21018.797     -20991.107      840.05348      936482.22      2.2391135      806.86679    
   2023300   404.66         27.301086     -21019.734     -20992.432      828.27606      909691.07      2.2313245      809.68336    
   2023350   404.67         28.379805     -21023.119     -20994.739      861.00285      886179.46      2.2144806      815.84203    
   2023400   404.68         29.235077     -21024.93      -20995.695      886.95058      877046.17      2.2027271      820.19526    
   2023450   404.69         28.886161     -21023.259     -20994.373      876.36496      882972.06      2.2041433      819.66827    
   2023500   404.7          30.432237     -21021.734     -20991.302      923.27072      906452.99      2.217214       814.83625    
   2023550   404.71         30.546017     -21019.186     -20988.64       926.72264      935825.69      2.2303881      810.02329    
   2023600   404.72         30.231902     -21018.939     -20988.707      917.19284      939381.56      2.2306958      809.91159    
   2023650   404.73         29.664774     -21021.003     -20991.338      899.98698      912284.86      2.2181981      814.47477    
   2023700   404.74         27.418503     -21021.251     -20993.833      831.83832      881476.83      2.2045236      819.52688    
   2023750   404.75         30.02167      -21023.4       -20993.378      910.81469      847343.2       2.2015691      820.62669    
   2023800   404.76         30.097399     -21019.921     -20989.824      913.11221      887821.93      2.2137485      816.11185    
   2023850   404.77         30.249827     -21016.262     -20986.012      917.73665      903010.04      2.228201       810.8184     
   2023900   404.78         31.943979     -21015.397     -20983.453      969.13482      936796.96      2.2361242      807.94544    
   2023950   404.79         34.254038     -21018.89      -20984.636      1039.2187      926284.03      2.226846       811.31177    
   2024000   404.8          31.576772     -21020.511     -20988.934      957.99426      869276.2       2.2069061      818.64213    
   2024050   404.81         31.794299     -21024.145     -20992.351      964.59372      855770.85      2.195233       822.99525    
   2024100   404.82         27.946855     -21021.398     -20993.451      847.86775      872562.94      2.2012781      820.73517    
   2024150   404.83         30.246768     -21021.821     -20991.575      917.64383      892075         2.2185127      814.35926    
   2024200   404.84         29.39422      -21019.088     -20989.694      891.77876      925792.87      2.2343392      808.59091    
   2024250   404.85         27.128044     -21017.399     -20990.271      823.02619      944305.25      2.2349028      808.38698    
   2024300   404.86         27.013435     -21020.617     -20993.604      819.54913      882217.86      2.2178393      814.60652    
   2024350   404.87         28.461897     -21024.22      -20995.758      863.49341      841434.99      2.2017781      820.54879    
   2024400   404.88         32.482396     -21026.659     -20994.177      985.46961      840178.68      2.2024295      820.30608    
   2024450   404.89         27.97882      -21017.855     -20989.877      848.83753      884186.36      2.2210184      813.44051    
   2024500   404.9          30.495124     -21015.759     -20985.264      925.17862      932659.47      2.2406837      806.30136    
   2024550   404.91         31.952949     -21016.312     -20984.359      969.40695      941217.73      2.2443886      804.97037    
   2024600   404.92         30.272858     -21018.403     -20988.13       918.43538      906017.5       2.2291965      810.45629    
   2024650   404.93         28.512678     -21022.675     -20994.163      865.03402      877012.41      2.2091836      817.79818    
   2024700   404.94         27.661471     -21026.295     -20998.633      839.20962      891400.26      2.2003071      821.09737    
   2024750   404.95         28.636179     -21026.583     -20997.947      868.78086      881369.43      2.2073364      818.48256    
   2024800   404.96         27.930435     -21021.16      -20993.229      847.36962      916771.61      2.2286468      810.65621    
   2024850   404.97         28.185769     -21016.514     -20988.328      855.11606      937831.33      2.2460655      804.36941    
   2024900   404.98         28.398949     -21015.948     -20987.549      861.58364      934124.35      2.2424396      805.67001    
   2024950   404.99         28.180154     -21019.525     -20991.345      854.94571      883445.29      2.2195228      813.98864    
   2025000   405            29.863795     -21025.006     -20995.142      906.02499      844207.84      2.1970182      822.32652    
   2025050   405.01         31.017032     -21026.577     -20995.56       941.01256      824041.03      2.19151        824.39339    
   2025100   405.02         32.045654     -21023.996     -20991.95       972.21948      853628.67      2.2093996      817.71825    
   2025150   405.03         31.588025     -21018.442     -20986.854      958.33568      927739.91      2.2362759      807.89062    
   2025200   405.04         29.282587     -21014.886     -20985.604      888.39197      943217.75      2.246493       804.21632    
   2025250   405.05         27.668217     -21017.687     -20990.018      839.41428      893256.64      2.2338378      808.77241    
   2025300   405.06         26.841246     -21023.115     -20996.274      814.32515      869866.9       2.2142029      815.94435    
   2025350   405.07         26.324016     -21025.884     -20999.56       798.63314      867938.23      2.2018232      820.53198    
   2025400   405.08         26.775816     -21025.499     -20998.723      812.3401       858368.55      2.2042266      819.6373     
   2025450   405.09         29.127691     -21023.465     -20994.337      883.69263      904394.61      2.2210645      813.42362    
   2025500   405.1          28.589342     -21018.436     -20989.846      867.35991      943162.6       2.2396105      806.68775    
   2025550   405.11         27.431364     -21015.033     -20987.602      832.2285       975413.17      2.2467197      804.13516    
   2025600   405.12         28.91311      -21018.139     -20989.226      877.18257      958149.21      2.233194       809.00555    
   2025650   405.13         31.570491     -21024.872     -20993.302      957.8037       890558.12      2.2091497      817.81074    
   2025700   405.14         30.940103     -21026.483     -20995.543      938.67864      852651.48      2.1971651      822.27155    
   2025750   405.15         31.352377     -21024.941     -20993.588      951.18645      867359.91      2.2059706      818.98932    
   2025800   405.16         31.814248     -21021.071     -20989.256      965.19894      903785.98      2.2266254      811.39213    
   2025850   405.17         32.152993     -21018.203     -20986.05       975.47598      930022.61      2.2435162      805.28339    
   2025900   405.18         29.344007     -21016.434     -20987.09       890.25535      931791.69      2.2460219      804.38499    
   2025950   405.19         27.391954     -21019.864     -20992.472      831.03285      877756.2       2.2310755      809.77374    
   2026000   405.2          27.078753     -21023.703     -20996.625      821.53079      857550.47      2.2152798      815.54771    
   2026050   405.21         28.338913     -21025.976     -20997.637      859.76223      853241.41      2.2090446      817.84964    
   2026100   405.22         29.149199     -21024.773     -20995.624      884.34517      873546.33      2.2138725      816.06612    
   2026150   405.23         27.576015     -21019.583     -20992.007      836.61702      922898.86      2.2254198      811.8317     
   2026200   405.24         31.479388     -21020.348     -20988.869      955.03977      928515.51      2.2333986      808.93143    
   2026250   405.25         30.785242     -21019.415     -20988.629      933.98039      910977.46      2.2308612      809.85154    
   2026300   405.26         31.396323     -21022.387     -20990.991      952.51971      889522.44      2.2187701      814.26479    
   2026350   405.27         28.203293     -21021.372     -20993.169      855.64774      882813.07      2.2088206      817.93259    
   2026400   405.28         32.109357     -21024.906     -20992.797      974.15215      895282.53      2.2095927      817.64679    
   2026450   405.29         30.024873     -21021.178     -20991.154      910.91188      899535.16      2.2185659      814.33972    
   2026500   405.3          30.330988     -21019.649     -20989.318      920.19895      910913.37      2.2293705      810.39303    
   2026550   405.31         30.709624     -21020.067     -20989.357      931.68623      933709.71      2.2348048      808.42244    
   2026600   405.32         28.891617     -21021.672     -20992.78       876.5305       923776.82      2.2292952      810.42043    
   2026650   405.33         29.6375       -21026.506     -20996.869      899.15953      888440.25      2.2165704      815.07286    
   2026700   405.34         27.263019     -21026.004     -20998.741      827.12115      866025.62      2.2089778      817.87437    
   2026750   405.35         25.514997     -21022.643     -20997.128      774.08865      881674.88      2.2135179      816.19685    
   2026800   405.36         29.149851     -21022.525     -20993.375      884.36496      901174.47      2.2256879      811.73391    
   2026850   405.37         29.963899     -21020.317     -20990.353      909.06199      927241.69      2.2367086      807.73434    
   2026900   405.38         29.592296     -21019.298     -20989.705      897.7881       929862.39      2.2377772      807.34863    
   2026950   405.39         29.282559     -21020.645     -20991.363      888.39112      921588.63      2.2278833      810.93402    
   2027000   405.4          29.121042     -21023.06      -20993.939      883.49093      909095.41      2.2123888      816.61342    
   2027050   405.41         29.688837     -21024.677     -20994.989      900.71703      885877.46      2.2015254      820.64298    
   2027100   405.42         33.090733     -21026.32      -20993.229      1003.9257      892726.55      2.2042104      819.64332    
   2027150   405.43         30.796341     -21021.132     -20990.336      934.3171       896092.09      2.2165318      815.08704    
   2027200   405.44         29.3162       -21017.014     -20987.697      889.41175      901269.15      2.2304463      810.00216    
   2027250   405.45         31.630629     -21018.729     -20987.099      959.62823      906247.09      2.2366076      807.77082    
   2027300   405.46         28.783348     -21018.842     -20990.059      873.24576      918016.31      2.2319088      809.47141    
   2027350   405.47         28.767542     -21022.667     -20993.899      872.76623      895649.64      2.2196287      813.94981    
   2027400   405.48         28.652993     -21024.974     -20996.321      869.29099      850843.47      2.20865        817.99577    
   2027450   405.49         28.28091      -21023.83      -20995.549      858.0025       855815.42      2.2092709      817.76586    
   2027500   405.5          28.551671     -21021.008     -20992.457      866.21702      880125.96      2.2191866      814.11195    
   2027550   405.51         27.762086     -21017.148     -20989.386      842.26214      906440.27      2.229785       810.24238    
   2027600   405.52         30.310782     -21017.657     -20987.346      919.58594      892975.93      2.2333481      808.94974    
   2027650   405.53         31.008209     -21017.679     -20986.671      940.74489      912901.77      2.2286218      810.66529    
   2027700   405.54         30.096848     -21018.265     -20988.168      913.09547      892660.54      2.2152205      815.56954    
   2027750   405.55         31.987001     -21021.77      -20989.783      970.44004      885382.72      2.2027567      820.18423    
   2027800   405.56         30.513733     -21020.52      -20990.007      925.74319      863595.41      2.1990362      821.57191    
   2027850   405.57         32.851464     -21019.891     -20987.039      996.66661      868188.27      2.2088765      817.9119     
   2027900   405.58         32.896469     -21016.142     -20983.245      998.03199      919037.3       2.2261425      811.56815    
   2027950   405.59         30.822425     -21013.373     -20982.55       935.10846      940051.12      2.2355314      808.15967    
   2028000   405.6          30.300246     -21015.587     -20985.287      919.26629      922947.51      2.2320245      809.42946    
   2028050   405.61         28.386855     -21018.428     -20990.041      861.21672      890776.29      2.2190352      814.16751    
   2028100   405.62         28.980302     -21022.406     -20993.426      879.22106      902338.45      2.2079041      818.2721     
   2028150   405.63         30.61233      -21025.456     -20994.844      928.73446      892468.65      2.2048211      819.41631    
   2028200   405.64         30.682277     -21024.944     -20994.262      930.85657      893787.73      2.2113077      817.01263    
   2028250   405.65         28.039687     -21020.592     -20992.552      850.68415      906444         2.2229098      812.7484     
   2028300   405.66         27.6824       -21018.362     -20990.68       839.84457      926098.64      2.233          809.07583    
   2028350   405.67         29.736888     -21019.619     -20989.882      902.17481      901749.72      2.2347216      808.45255    
   2028400   405.68         29.566152     -21019.387     -20989.821      896.99492      906141.78      2.2293809      810.38926    
   2028450   405.69         30.773217     -21021.085     -20990.312      933.61555      911187.99      2.2170474      814.89749    
   2028500   405.7          33.356896     -21024.736     -20991.379      1012.0007      873642.01      2.2025381      820.26564    
   2028550   405.71         29.739043     -21021.421     -20991.682      902.24019      880024.69      2.1989089      821.61946    
   2028600   405.72         30.607712     -21020.315     -20989.707      928.59437      884940.4       2.2085884      818.01857    
   2028650   405.73         29.87603      -21016.558     -20986.682      906.39618      922877.78      2.2259186      811.64978    
   2028700   405.74         30.39841      -21015.612     -20985.214      922.24443      924827.11      2.2366003      807.77345    
   2028750   405.75         29.292504     -21016.136     -20986.844      888.69284      925625.46      2.234793       808.42671    
   2028800   405.76         28.020318     -21019.346     -20991.326      850.09652      893018.03      2.2206985      813.5577     
   2028850   405.77         29.437225     -21025.062     -20995.625      893.08347      860666.11      2.2055229      819.15558    
[...]
   2193050   438.61         31.427157     -21035.231     -21003.804      953.45516      880765.97      2.1672409      833.62507    
   2193100   438.62         29.684788     -21031.199     -21001.514      900.59418      880897.44      2.1809414      828.3883     
   2193150   438.63         28.933474     -21027.701     -20998.767      877.80038      888948.49      2.1986839      821.70354    
   2193200   438.64         30.388586     -21026.483     -20996.094      921.94641      899423.49      2.215132       815.60213    
   2193250   438.65         29.127525     -21023.169     -20994.041      883.68762      878874.28      2.2262588      811.52575    
   2193300   438.66         30.564947     -21022.068     -20991.503      927.29695      882346.08      2.2389665      806.91976    
   2193350   438.67         31.367745     -21019.568     -20988.201      951.65268      888143.9       2.2562881      800.72501    
   2193400   438.68         29.062536     -21013.877     -20984.815      881.71593      900875.52      2.2759916      793.79305    
   2193450   438.69         29.309793     -21011.401     -20982.092      889.21736      948796.04      2.2910073      788.59041    
   2193500   438.7          29.316462     -21011.88      -20982.564      889.41969      961142.39      2.2883585      789.50318    
   2193550   438.71         30.473995     -21016.919     -20986.445      924.53759      933778.65      2.2676614      796.70904    
   2193600   438.72         31.256452     -21022.72      -20991.463      948.27622      908812.07      2.2406866      806.30033    
   2193650   438.73         29.405331     -21024.31      -20994.904      892.11583      912509.54      2.2166234      815.05334    
   2193700   438.74         31.630631     -21028.481     -20996.85       959.62829      900402.27      2.1965985      822.48363    
   2193750   438.75         33.375974     -21032.875     -20999.499      1012.5795      909717.94      2.1792249      829.04081    
   2193800   438.76         28.377137     -21030.995     -21002.618      860.9219       885500.87      2.1639441      834.8951     
   2193850   438.77         28.392118     -21031.612     -21003.22       861.37641      879100.78      2.1587076      836.92037    
   2193900   438.78         28.984169     -21029.79      -21000.806      879.33838      884517.98      2.1661677      834.03809    
   2193950   438.79         28.154419     -21024.363     -20996.209      854.16497      911036.3       2.1795923      828.90105    
   2194000   438.8          30.081111     -21022.456     -20992.375      912.61804      894076.6       2.1886743      825.4615     
   2194050   438.81         27.842708     -21017.724     -20989.881      844.7081       875895.49      2.1967306      822.43417    
   2194100   438.82         27.769199     -21014.78      -20987.011      842.47792      893538.01      2.2070079      818.60437    
   2194150   438.83         26.924373     -21010.219     -20983.294      816.8471       900001.37      2.2191066      814.14129    
   2194200   438.84         28.500479     -21007.79      -20979.29       864.66392      905022.5       2.2305594      809.96109    
   2194250   438.85         28.747522     -21005.094     -20976.347      872.15886      899756.04      2.2377669      807.35234    
   2194300   438.86         32.871763     -21007.216     -20974.344      997.28247      881529.56      2.2442777      805.01016    
   2194350   438.87         30.245929     -21002.814     -20972.568      917.61839      909901.55      2.2538042      801.60749    
   2194400   438.88         27.304217     -20999.01      -20971.706      828.37104      911814.01      2.2582045      800.0455     
   2194450   438.89         30.330555     -21002.882     -20972.552      920.18582      909603.44      2.2531875      801.82689    
   2194500   438.9          32.633006     -21006.797     -20974.164      990.03892      898513.4       2.2427615      805.55437    
   2194550   438.91         32.592848     -21009.558     -20976.965      988.82056      886883.47      2.2338396      808.77173    
   2194600   438.92         28.949857     -21009.51      -20980.56       878.2974       904165.06      2.2300206      810.1568     
   2194650   438.93         27.560703     -21009.762     -20982.201      836.15245      910377.68      2.2283411      810.76741    
   2194700   438.94         28.203228     -21010.943     -20982.74       855.64576      926761.1       2.2259497      811.63843    
   2194750   438.95         32.47676      -21015.419     -20982.942      985.29862      899017.71      2.2230956      812.68044    
   2194800   438.96         30.358143     -21012.989     -20982.631      921.02282      893848.94      2.2276721      811.01089    
   2194850   438.97         27.81943      -21009.127     -20981.307      844.00188      867932.71      2.2380741      807.24154    
   2194900   438.98         31.538804     -21009.61      -20978.071      956.84237      876076.79      2.2566883      800.58304    
   2194950   438.99         32.265699     -21007.331     -20975.066      978.89534      916429.34      2.2777494      793.18048    
   2195000   439            28.955497     -21004.779     -20975.823      878.46852      948146.53      2.2854695      790.50118    
   2195050   439.01         28.097028     -21007.84      -20979.743      852.42381      919995.75      2.2722968      795.08379    
   2195100   439.02         31.226892     -21016.176     -20984.949      947.3794       888923.34      2.2485677      803.47428    
   2195150   439.03         29.400186     -21019.367     -20989.967      891.95976      885098.57      2.2270043      811.25408    
   2195200   439.04         32.41039      -21026.06      -20993.65       983.28504      912183.04      2.2120383      816.74278    
   2195250   439.05         29.281342     -21026.658     -20997.377      888.35421      925116.18      2.1989529      821.60301    
   2195300   439.06         30.19692      -21031.775     -21001.578      916.13152      922427.2       2.1831018      827.56852    
   2195350   439.07         30.793389     -21036.889     -21006.096      934.22755      856417.4       2.1655135      834.29005    
   2195400   439.08         31.638098     -21040.021     -21008.383      959.85481      848707.94      2.1604392      836.24956    
   2195450   439.09         29.705062     -21036.868     -21007.163      901.20925      863887.55      2.1699738      832.57518    
   2195500   439.1          30.887135     -21034.437     -21003.549      937.07166      891551.97      2.1879876      825.72055    
   2195550   439.11         28.403609     -21028.423     -21000.02       861.72502      907235.95      2.2045675      819.51056    
   2195600   439.12         30.262666     -21027.241     -20996.978      918.12617      920884.63      2.2165351      815.08581    
   2195650   439.13         28.725953     -21023.799     -20995.073      871.50449      879073.57      2.2232361      812.62909    
   2195700   439.14         26.555409     -21018.999     -20992.444      805.65326      881577.36      2.2342301      808.63039    
   2195750   439.15         28.776062     -21016.193     -20987.417      873.02471      905009.94      2.2536286      801.66996    
   2195800   439.16         29.320823     -21010.661     -20981.34       889.552        924436.85      2.2766284      793.57103    
   2195850   439.17         31.483434     -21008.96      -20977.477      955.16252      946049.55      2.2884058      789.48687    
   2195900   439.18         29.993475     -21009.357     -20979.363      909.9593       927040.23      2.2762469      793.70405    
   2195950   439.19         31.084867     -21015.043     -20983.958      943.07058      906280.58      2.2502478      802.87439    
   2196000   439.2          30.238963     -21017.867     -20987.628      917.40704      876259.99      2.2257387      811.71537    
   2196050   439.21         29.979608     -21019.104     -20989.125      909.53858      909761.91      2.2116021      816.9039     
   2196100   439.22         31.382768     -21022.826     -20991.444      952.10845      887928.61      2.1979956      821.96086    
   2196150   439.23         31.088089     -21026.035     -20994.947      943.16831      883214.16      2.1830979      827.57002    
   2196200   439.24         31.44335      -21030.167     -20998.724      953.94645      873123.82      2.171164       832.11877    
   2196250   439.25         30.659654     -21032.748     -21002.089      930.17022      871865.75      2.168359       833.19522    
   2196300   439.26         29.863538     -21032.474     -21002.61       906.01718      886107.67      2.1738427      831.09342    
   2196350   439.27         27.762952     -21028.67      -21000.907      842.2884       904044.73      2.1860922      826.43647    
   2196400   439.28         31.591294     -21030.01      -20998.419      958.43486      921174.55      2.199473       821.40872    
   2196450   439.29         29.579662     -21027.038     -20997.459      897.40479      901288.28      2.2068287      818.67085    
   2196500   439.3          30.425816     -21027.417     -20996.991      923.07591      903154.08      2.2121296      816.70907    
   2196550   439.31         29.428084     -21026.597     -20997.169      892.80614      906533.19      2.2159091      815.31609    
   2196600   439.32         30.025459     -21027.513     -20997.488      910.92963      899093.8       2.2190553      814.16011    
   2196650   439.33         30.642141     -21028.535     -20997.893      929.6389       896763.42      2.2232389      812.62808    
   2196700   439.34         30.684196     -21029.862     -20999.178      930.91479      898989.64      2.2271088      811.21602    
   2196750   439.35         27.712246     -21028.844     -21001.131      840.75007      872403.59      2.2278657      810.94042    
   2196800   439.36         28.40535      -21030.128     -21001.723      861.77786      883225.61      2.2274999      811.0736     
   2196850   439.37         29.480708     -21031.263     -21001.782      894.40267      916110.14      2.2275635      811.05045    
   2196900   439.38         30.016223     -21031.602     -21001.586      910.64943      933545.91      2.2254739      811.81197    
   2196950   439.39         29.107636     -21032.098     -21002.99       883.0842       931167.4       2.2165494      815.08057    
   2197000   439.4          29.117746     -21034.974     -21005.856      883.39091      882228.81      2.1997375      821.30999    
   2197050   439.41         27.5965       -21036.738     -21009.142      837.23848      878389.16      2.1795093      828.93262    
   2197100   439.42         27.635936     -21038.766     -21011.13       838.43493      867612.65      2.1602577      836.31983    
   2197150   439.43         29.254229     -21039.601     -21010.347      887.53162      857626.66      2.1545208      838.5467     
   2197200   439.44         31.826656     -21038.142     -21006.316      965.5754       880214.74      2.1702675      832.46253    
   2197250   439.45         29.675151     -21030.789     -21001.114      900.30181      913693.41      2.1941167      823.41395    
   2197300   439.46         29.000362     -21026.588     -20997.588      879.82965      895817.29      2.2116687      816.87929    
   2197350   439.47         28.83602      -21022.278     -20993.442      874.84377      887303.82      2.2285185      810.70288    
   2197400   439.48         31.916534     -21019.767     -20987.851      968.30215      910544.37      2.249967       802.9746     
   2197450   439.49         28.458064     -21011.305     -20982.847      863.3771       894059.78      2.2705688      795.6889     
   2197500   439.5          32.243679     -21010.932     -20978.688      978.22727      923004.55      2.2872605      789.88218    
   2197550   439.51         31.454486     -21010.123     -20978.669      954.2843       959176.5       2.2862622      790.22709    
   2197600   439.52         31.057998     -21014.586     -20983.528      942.25539      893774         2.2628912      798.38853    
   2197650   439.53         29.31037      -21018.675     -20989.365      889.23487      908891.01      2.2374011      807.48435    
   2197700   439.54         28.452503     -21023.574     -20995.121      863.20839      907342.9       2.2148137      815.71934    
   2197750   439.55         27.732247     -21028.636     -21000.903      841.35687      884656.19      2.1917753      824.2936     
   2197800   439.56         30.567346     -21037.063     -21006.496      927.36974      881231.2       2.1678202      833.40229    
   2197850   439.57         30.356722     -21040.8       -21010.444      920.9797       847702.21      2.1514735      839.73443    
   2197900   439.58         30.76214      -21041.037     -21010.274      933.2795       856108.65      2.1554688      838.17792    
   2197950   439.59         26.754589     -21033.216     -21006.462      811.69611      909381.6       2.1777303      829.60979    
   2198000   439.6          28.749564     -21031.223     -21002.473      872.22081      908207.73      2.1994983      821.3993     
   2198050   439.61         30.98845      -21029.55      -20998.562      940.14543      904274.33      2.218716       814.28465    
   2198100   439.62         30.841171     -21025.331     -20994.49       935.67719      880572.45      2.2385894      807.05572    
   2198150   439.63         30.425976     -21020.513     -20990.087      923.08075      899265.43      2.2651048      797.60827    
   2198200   439.64         28.446745     -21015.04      -20986.593      863.0337       948208.58      2.2898514      788.98845    
   2198250   439.65         30.494332     -21018.125     -20987.631      925.15458      948116.35      2.2934825      787.73931    
   2198300   439.66         28.387403     -21021.305     -20992.917      861.23335      899620.93      2.2744867      794.31826    
   2198350   439.67         31.435524     -21029.2       -20997.765      953.70901      891580.5       2.2544074      801.39303    
   2198400   439.68         27.588649     -21027.675     -21000.087      837.0003       855788.46      2.2409849      806.19301    
   2198450   439.69         26.505618     -21026.048     -20999.543      804.14269      871973.01      2.2386184      807.04526    
   2198500   439.7          28.314964     -21025.104     -20996.789      859.03567      869954.93      2.2449674      804.76283    
   2198550   439.71         29.518145     -21022.301     -20992.782      895.53845      859426.47      2.2593872      799.62669    
   2198600   439.72         29.841979     -21017.779     -20987.937      905.36313      898160.74      2.2801092      792.35955    
   2198650   439.73         31.749228     -21016.601     -20984.852      963.22634      956615.84      2.2934636      787.74581    
   2198700   439.74         32.129964     -21019.201     -20987.071      974.77734      922486.83      2.2837652      791.09112    
   2198750   439.75         30.397743     -21021.633     -20991.235      922.22421      901190.45      2.2643002      797.8917     
   2198800   439.76         30.020684     -21025.455     -20995.434      910.78478      887459.41      2.2478675      803.72458    
   2198850   439.77         26.84146      -21024.82      -20997.979      814.33165      883691.3       2.2391489      806.85406    
   2198900   439.78         28.222444     -21027.104     -20998.882      856.22875      892461.48      2.2385867      807.05668    
   2198950   439.79         28.82305      -21026.353     -20997.53       874.45027      876824.71      2.2466439      804.16232    
   2199000   439.8          28.2427       -21021.002     -20992.759      856.84327      891879.17      2.2655045      797.46758    
   2199050   439.81         29.87852      -21015.381     -20985.502      906.47173      938565.06      2.2898624      788.98468    
   2199100   439.82         30.188415     -21012.456     -20982.268      915.8735       981747.71      2.2975807      786.33424    
   2199150   439.83         28.6968       -21014.032     -20985.335      870.62001      915846.56      2.2775866      793.23717    
   2199200   439.84         29.770922     -21019.572     -20989.801      903.20735      904186.51      2.2521423      802.19903    
   2199250   439.85         27.410512     -21021.196     -20993.785      831.59588      890398.56      2.2308204      809.86634    
   2199300   439.86         27.267316     -21023.947     -20996.679      827.2515       892138.41      2.2140742      815.99177    
   2199350   439.87         29.804517     -21028.736     -20998.932      904.22657      889183.3       2.1988332      821.64774    
   2199400   439.88         33.100814     -21033.538     -21000.437      1004.2315      905167.01      2.185598       826.62336    
   2199450   439.89         28.889789     -21030.968     -21002.078      876.47503      881839.91      2.1738919      831.07462    
   2199500   439.9          31.149025     -21032.297     -21001.148      945.01703      881898.29      2.1707376      832.28224    
   2199550   439.91         29.826493     -21027.162     -20997.335      904.89329      888351.02      2.1797715      828.83289    
   2199600   439.92         27.815482     -21020.169     -20992.353      843.88209      895138.29      2.1955077      822.89227    
   2199650   439.93         28.988612     -21016.743     -20987.754      879.4732       894044.22      2.2104945      817.31322    
   2199700   439.94         29.160141     -21012.73      -20983.57       884.67714      893500.84      2.2264812      811.44469    
   2199750   439.95         30.478487     -21009.007     -20978.528      924.67386      888604.91      2.2495896      803.10931    
   2199800   439.96         30.630108     -21003.876     -20973.246      929.27383      931803.34      2.2747388      794.23025    
   2199850   439.97         30.784608     -21002.518     -20971.733      933.96115      940396.18      2.2830875      791.32593    
   2199900   439.98         30.72479      -21005.634     -20974.909      932.14636      906577.33      2.271779       795.26499    
   2199950   439.99         28.680108     -21009.038     -20980.358      870.11361      879351.72      2.2526511      802.01785    
   2200000   440            27.335878     -21012.639     -20985.303      829.33159      881338.78      2.2374647      807.46137    
Loop time of 1083.09 on 4 procs for 200000 steps with 256 atoms

Performance: 3.191 ns/day, 7.521 hours/ns, 184.657 timesteps/s
123.0% CPU use with 4 MPI tasks x no OpenMP threads

MPI task timing breakdown:
Section |  min time  |  avg time  |  max time  |%varavg| %total
---------------------------------------------------------------
Pair    | 939.54     | 948.54     | 965.95     |  34.5 | 87.58
Neigh   | 24.411     | 24.971     | 25.412     |   7.2 |  2.31
Comm    | 77.437     | 95.333     | 104.37     | 112.2 |  8.80
Output  | 0.19762    | 0.24695    | 0.2636     |   5.7 |  0.02
Modify  | 13.639     | 13.656     | 13.677     |   0.4 |  1.26
Other   |            | 0.3472     |            |       |  0.03

Nlocal:             64 ave          67 max          58 min
Histogram: 1 0 0 0 0 0 1 0 0 2
Nghost:           3282 ave        3297 max        3261 min
Histogram: 1 0 0 0 0 1 0 1 0 1
Neighs:              0 ave           0 max           0 min
Histogram: 4 0 0 0 0 0 0 0 0 0
FullNghs:      43345.5 ave       45434 max       39274 min
Histogram: 1 0 0 0 0 0 1 0 0 2

Total # of neighbors = 173382
Ave neighs/atom = 677.27344
Neighbor list builds = 20000
Dangerous builds not checked
System init for write_restart ...
Generated 0 of 1 mixed pair_coeff terms from geometric mixing rule
System init for write_data ...
Generated 0 of 1 mixed pair_coeff terms from geometric mixing rule
Total wall time: 0:18:12
